arrrr

46860 atoms
44517 bonds
42174 angles

2 atom types
1 bond types
1 angle types

0.000000 25.000000 xlo xhi
0.000000 25.000000 ylo yhi
0.000000 25.000000 zlo zhi

Masses

1 1.000000
2 1.000000

Atoms

1 1 1  21.032377 3.898138 0.161501
2 1 1  21.470657 5.580025 24.278782
3 1 1  22.426632 6.105322 23.329058
4 1 1  23.786426 5.103715 22.681720
5 1 1  22.935774 5.348938 22.972491
6 1 1  23.411300 6.084703 23.237545
7 1 1  22.396212 5.165066 22.976962
8 1 1  22.237761 5.329865 21.705315
9 1 1  22.020966 7.042592 21.479687
10 1 1  23.624864 8.626579 22.079494
11 1 2  22.965811 8.453915 24.141453
12 1 2  23.407173 8.823023 0.892638
13 1 2  24.067788 9.147696 1.899605
14 1 2  24.955720 8.377441 0.671841
15 1 2  0.000856 6.861745 24.138583
16 1 2  24.617244 5.161168 1.098886
17 1 2  0.427586 5.971414 2.179362
18 1 2  0.769073 4.250334 2.399462
19 1 2  1.243835 4.640794 3.039680
20 1 2  1.611330 3.641090 1.656928
21 2 1  12.706581 0.713640 17.517200
22 2 1  11.773465 1.661757 16.995331
23 2 1  11.826156 24.981214 17.104553
24 2 1  10.030900 24.781286 17.744160
25 2 1  10.225393 22.642334 16.602336
26 2 1  11.730821 22.987514 15.058923
27 2 1  11.427639 23.214323 15.238413
28 2 1  10.542067 21.327887 15.154723
29 2 1  9.147094 21.525144 15.873317
30 2 1  9.163746 22.024670 15.913783
31 2 2  11.320355 22.378472 15.692062
32 2 2  12.308598 20.421391 16.901857
33 2 2  12.352455 20.003755 17.705107
34 2 2  11.418481 20.056396 19.183507
35 2 2  10.740368 18.404239 19.609592
36 2 2  10.773469 16.872685 19.446827
37 2 2  10.686769 18.754834 20.424761
38 2 2  11.497666 17.910018 19.151877
39 2 2  10.528684 16.654050 19.378639
40 2 2  11.795183 17.896656 20.777495
41 3 1  20.929690 1.730917 3.970585
42 3 1  20.662171 1.168414 4.124158
43 3 1  21.376690 3.555021 3.118587
44 3 1  21.279451 2.015754 4.295835
45 3 1  22.637662 1.560592 5.711767
46 3 1  21.628678 2.781823 6.837574
47 3 1  21.015282 2.815579 5.845365
48 3 1  20.817800 4.581381 7.392050
49 3 1  21.809222 6.099672 8.759455
50 3 1  21.478571 6.499406 10.072869
51 3 2  20.873275 5.369928 9.868036
52 3 2  18.876244 5.557505 8.474420
53 3 2  19.006211 4.574168 9.393214
54 3 2  19.107944 3.533093 9.836017
55 3 2  20.596840 1.202695 10.775163
56 3 2  19.146626 2.102401 11.432109
57 3 2  18.594651 1.840669 10.748489
58 3 2  18.495971 2.065916 9.962709
59 3 2  16.850315 2.262381 8.045194
60 3 2  17.369508 2.495276 8.120722
61 4 1  22.976277 3.885725 20.442575
62 4 1  22.532440 4.568659 20.139970
63 4 1  23.927842 3.761854 21.764771
64 4 1  22.887088 3.393966 22.069729
65 4 1  21.761738 4.591901 21.660912
66 4 1  23.619950 4.537923 21.651580
67 4 1  23.948809 5.905158 22.253231
68 4 1  24.703971 6.816921 23.326108
69 4 1  0.388659 8.486598 22.825790
70 4 1  23.209851 6.162736 21.560913
71 4 2  22.972775 7.129390 21.101633
72 4 2  22.383783 6.476236 20.047782
73 4 2  22.307549 7.430876 19.341103
74 4 2  21.175823 6.659809 17.667349
75 4 2  21.755070 7.685848 17.036677
76 4 2  23.231712 8.980574 17.841868
77 4 2  23.375356 9.871483 17.671907
78 4 2  0.660511 8.525468 19.077928
79 4 2  1.185593 8.899207 20.133724
80 4 2  24.574842 8.148843 19.870422
81 5 1  4.858829 0.126079 11.187052
82 5 1  4.474832 1.900141 9.820380
83 5 1  4.085625 2.391063 10.559558
84 5 1  5.443078 3.790996 12.244023
85 5 1  6.867614 4.234076 11.332232
86 5 1  6.413011 4.996755 11.742329
87 5 1  7.230425 6.425824 10.895550
88 5 1  9.191115 8.644813 10.719279
89 5 1  9.667083 9.030109 10.722682
90 5 1  10.709767 8.529606 12.558248
91 5 2  10.752522 9.488688 13.050009
92 5 2  10.882111 10.305285 13.067365
93 5 2  10.910789 9.478941 14.963582
94 5 2  11.215507 9.558155 15.523433
95 5 2  11.253415 10.589826 15.462614
96 5 2  12.284277 10.271100 14.648505
97 5 2  11.659634 10.150938 14.517991
98 5 2  12.051370 10.263603 13.886611
99 5 2  10.224079 11.578668 13.892273
100 5 2  9.226669 11.679285 13.442804
101 6 1  4.965657 19.532197 23.854336
102 6 1  4.646289 20.889140 23.094736
103 6 1  5.706632 22.682342 22.401335
104 6 1  6.225660 22.289443 23.108001
105 6 1  6.704527 22.300569 23.706062
106 6 1  7.155154 22.004414 24.322168
107 6 1  5.791004 22.534745 0.504299
108 6 1  5.924827 24.003855 1.477284
109 6 1  6.988507 22.901335 1.635611
110 6 1  8.551143 20.621130 1.787642
111 6 2  7.831862 20.215619 3.008148
112 6 2  7.665632 22.381878 3.912475
113 6 2  10.217516 21.898654 5.646158
114 6 2  8.907281 22.444571 6.692494
115 6 2  7.693583 21.979305 6.127948
116 6 2  6.942271 22.363657 6.236581
117 6 2  7.188867 23.382192 6.808235
118 6 2  6.435254 24.159365 6.440161
119 6 2  5.319156 23.282555 5.691058
120 6 2  5.184275 22.223137 4.404582
121 7 1  5.122340 24.167341 0.500172
122 7 1  5.022383 23.232744 23.924993
123 7 1  4.554212 22.653328 24.561417
124 7 1  3.311500 21.945240 23.192890
125 7 1  2.523531 22.627528 0.209648
126 7 1  2.174933 21.747328 1.012168
127 7 1  0.910852 22.195185 1.350590
128 7 1  3.192924 23.907581 1.571717
129 7 1  3.287497 24.271212 0.890920
130 7 1  0.783846 22.534465 0.204746
131 7 2  24.812838 22.927871 24.736145
132 7 2  0.756248 21.890960 0.144796
133 7 2  23.919515 21.706833 0.847040
134 7 2  24.301827 23.095826 1.510367
135 7 2  24.195209 22.031701 0.944603
136 7 2  24.112753 21.260398 2.056459
137 7 2  0.247849 22.404086 1.988706
138 7 2  0.899312 23.255623 3.668042
139 7 2  0.392223 23.599296 3.607329
140 7 2  24.795380 23.301575 3.323664
141 8 1  1.717321 13.995582 1.609057
142 8 1  0.704163 14.241562 1.572065
143 8 1  0.085921 15.344638 1.630577
144 8 1  0.240464 14.520372 0.779804
145 8 1  24.919236 13.955600 1.442297
146 8 1  24.669660 13.953683 24.898494
147 8 1  0.855712 15.987990 23.337281
148 8 1  3.129877 17.086188 21.665710
149 8 1  2.753764 16.435942 19.474122
150 8 1  4.318891 16.310004 19.498542
151 8 2  2.503291 16.856413 19.921855
152 8 2  3.314616 16.337010 21.854473
153 8 2  2.762725 17.595766 20.556691
154 8 2  2.213072 17.515833 23.081139
155 8 2  3.061739 18.468729 24.111464
156 8 2  3.852454 17.417127 1.468433
157 8 2  3.807144 17.873016 1.621575
158 8 2  4.224681 16.305723 1.559197
159 8 2  4.374792 16.779844 2.793017
160 8 2  5.988545 18.049827 3.493776
161 9 1  11.159424 6.398028 18.730262
162 9 1  13.042302 6.275687 18.356241
163 9 1  12.433222 5.848710 18.269129
164 9 1  12.994920 6.473685 19.027345
165 9 1  13.435029 6.973958 18.383464
166 9 1  14.198181 7.929506 18.530320
167 9 1  14.084153 7.847888 17.391900
168 9 1  14.085588 7.971848 17.073452
169 9 1  14.846092 7.865984 15.410392
170 9 1  14.771424 6.923332 15.601319
171 9 2  15.487586 6.267521 16.241951
172 9 2  15.659500 6.341218 17.084244
173 9 2  17.657785 7.350147 17.297117
174 9 2  17.547660 8.270874 17.913576
175 9 2  19.028178 8.411261 18.706651
176 9 2  19.117477 9.078044 18.059649
177 9 2  18.620223 9.856468 19.436715
178 9 2  18.771969 10.961641 18.861723
179 9 2  18.894264 10.583099 19.637346
180 9 2  20.057014 9.436553 18.304339
181 10 1  17.788006 10.860604 0.286168
182 10 1  16.902659 12.855587 23.393588
183 10 1  15.971538 11.032181 0.192432
184 10 1  15.747347 9.950066 24.755223
185 10 1  15.825605 8.666253 24.993776
186 10 1  14.180969 7.542136 24.011126
187 10 1  11.936264 7.722902 24.024734
188 10 1  10.332992 8.528557 24.867197
189 10 1  10.998683 10.021662 24.910810
190 10 1  11.286738 7.797170 0.523167
191 10 2  9.632087 9.048092 24.752433
192 10 2  11.323002 10.159288 1.800305
193 10 2  12.861102 10.646633 1.073906
194 10 2  11.523983 9.157226 1.299932
195 10 2  11.183142 7.867456 0.769948
196 10 2  11.706442 7.653376 24.967958
197 10 2  11.301586 7.158599 0.251123
198 10 2  11.530327 6.421347 0.515625
199 10 2  11.299066 7.482544 24.770265
200 10 2  11.919791 6.789789 0.966157
201 11 1  3.822364 17.715111 9.368537
202 11 1  4.721559 17.266794 10.435634
203 11 1  5.265167 17.293675 9.040846
204 11 1  4.987115 17.938985 8.663830
205 11 1  6.674956 17.636267 8.215347
206 11 1  6.094004 19.034323 8.306006
207 11 1  5.735499 17.635810 7.878282
208 11 1  5.212726 17.080702 7.408083
209 11 1  3.612276 17.248763 6.720011
210 11 1  4.053155 18.114302 5.997173
211 11 2  5.344565 18.669986 5.960893
212 11 2  4.951069 20.130292 4.292504
213 11 2  7.203638 19.893471 6.761387
214 11 2  6.759318 19.657879 6.949141
215 11 2  6.625076 19.403796 6.420324
216 11 2  8.092778 20.071749 7.579102
217 11 2  7.344114 19.203347 3.745283
218 11 2  6.765688 19.120338 4.011222
219 11 2  5.589931 17.644689 5.068745
220 11 2  5.371442 17.175127 6.453196
221 12 1  0.754580 4.298471 13.752453
222 12 1  0.794717 5.916378 13.759771
223 12 1  1.238290 5.953702 14.646578
224 12 1  1.901453 6.886192 15.203484
225 12 1  3.961211 9.003704 14.891633
226 12 1  3.298367 10.656283 15.311709
227 12 1  5.752081 11.905276 14.370222
228 12 1  5.198021 12.206796 15.992131
229 12 1  4.630097 12.952379 15.990340
230 12 1  3.461956 14.383206 16.695166
231 12 2  3.106341 13.292486 15.478990
232 12 2  1.748858 14.215134 16.143306
233 12 2  0.402178 15.531802 14.066315
234 12 2  24.886115 15.864165 14.946004
235 12 2  24.457647 14.635005 15.292278
236 12 2  0.475010 13.752672 14.840558
237 12 2  23.776316 15.178485 15.568749
238 12 2  23.851118 14.969369 13.941980
239 12 2  22.680411 15.177517 14.166972
240 12 2  23.148638 14.510082 13.292486
241 13 1  4.546109 6.272499 5.404513
242 13 1  3.294454 5.481866 5.330977
243 13 1  2.890492 4.964856 5.360548
244 13 1  3.701402 4.027830 5.101946
245 13 1  1.936591 3.886450 6.261560
246 13 1  1.143362 3.273615 6.423419
247 13 1  1.326573 3.013859 6.255360
248 13 1  0.504081 2.075977 5.773427
249 13 1  1.747838 3.049996 5.013946
250 13 1  0.366018 3.142977 5.944601
251 13 2  0.725284 4.878375 6.990228
252 13 2  24.392010 4.177699 7.843148
253 13 2  24.329129 3.974948 7.408168
254 13 2  1.259210 2.682143 7.140381
255 13 2  1.004722 1.908986 6.330437
256 13 2  23.805444 1.831445 5.745126
257 13 2  22.942704 2.437874 5.869890
258 13 2  23.197277 1.901574 7.169159
259 13 2  22.660584 1.681834 7.849444
260 13 2  22.692929 1.132990 8.220238
261 14 1  22.632612 11.782041 3.158324
262 14 1  24.140256 10.491514 3.206762
263 14 1  24.012509 10.658697 3.363933
264 14 1  1.119026 12.823722 3.487507
265 14 1  1.187496 11.854191 2.491642
266 14 1  1.528402 11.551862 3.824586
267 14 1  1.448826 12.179464 3.384242
268 14 1  1.226103 13.799542 3.589519
269 14 1  1.966148 12.968242 3.421449
270 14 1  2.604001 13.629093 3.557025
271 14 2  2.658731 14.578119 2.913441
272 14 2  1.682484 14.088614 2.294598
273 14 2  2.742567 12.269344 0.586144
274 14 2  2.102540 12.216768 22.949912
275 14 2  0.721245 11.877572 21.150785
276 14 2  0.587286 14.089060 19.287417
277 14 2  2.469930 14.674683 19.761974
278 14 2  24.487158 16.035950 21.982333
279 14 2  24.442240 15.460482 21.164089
280 14 2  0.096512 17.635408 20.874029
281 15 1  13.456937 10.816605 21.483904
282 15 1  13.736853 9.331880 20.240458
283 15 1  14.644632 10.133208 19.679644
284 15 1  14.847740 10.175652 18.254040
285 15 1  12.801941 11.039580 17.933001
286 15 1  12.904522 11.950572 18.205232
287 15 1  13.346727 13.227580 18.271952
288 15 1  14.629582 13.358343 17.847963
289 15 1  14.469833 13.884899 17.201825
290 15 1  15.495687 13.920261 16.566030
291 15 2  15.960953 15.244659 18.526082
292 15 2  15.863154 14.033283 19.689284
293 15 2  15.273052 14.149304 18.859973
294 15 2  13.755545 14.214738 17.596378
295 15 2  14.476239 13.706289 17.037985
296 15 2  12.657614 12.574149 16.176328
297 15 2  13.313440 13.016590 14.294786
298 15 2  13.169536 12.896618 14.251847
299 15 2  12.156338 13.053194 12.646902
300 15 2  10.919889 13.213816 13.784301
301 16 1  17.258504 17.300271 19.020190
302 16 1  15.863408 16.208332 18.684113
303 16 1  16.427797 15.368598 19.562631
304 16 1  15.694718 15.676621 17.324952
305 16 1  16.401464 14.612740 15.601354
306 16 1  18.299427 12.337892 15.853846
307 16 1  18.290903 12.665637 16.733663
308 16 1  17.952885 13.233351 15.860893
309 16 1  17.596696 12.872330 16.845514
310 16 1  18.376914 13.706522 16.483451
311 16 2  18.320097 13.327495 17.889660
312 16 2  18.079202 14.668776 18.720250
313 16 2  17.510286 16.169153 19.564352
314 16 2  17.930816 17.675962 19.425156
315 16 2  17.288220 18.073170 19.923961
316 16 2  15.642993 17.983443 20.262002
317 16 2  15.198703 17.717774 19.964233
318 16 2  15.961288 18.080989 19.731971
319 16 2  14.195231 18.975839 19.072421
320 16 2  14.606691 18.220978 19.227640
321 17 1  3.425564 1.261024 6.951068
322 17 1  4.586794 0.789093 6.993802
323 17 1  4.839297 1.606505 5.444363
324 17 1  5.281153 0.363330 3.490362
325 17 1  5.718366 23.989972 3.236553
326 17 1  6.151201 23.659955 0.825431
327 17 1  7.879632 23.576282 0.156877
328 17 1  9.378901 23.902932 22.809590
329 17 1  9.166925 0.072354 21.917734
330 17 1  9.202489 2.241770 22.144135
331 17 2  8.418230 2.538180 20.066544
332 17 2  9.092458 1.680376 20.474103
333 17 2  6.840362 0.759945 20.034015
334 17 2  5.953755 1.463077 19.686334
335 17 2  6.466963 1.567667 18.298974
336 17 2  7.821083 2.588507 17.157387
337 17 2  8.365684 1.942649 18.207552
338 17 2  6.832631 0.698628 16.710997
339 17 2  7.900341 1.433639 16.594723
340 17 2  7.564903 0.583911 16.990089
341 18 1  4.177369 10.002977 1.470801
342 18 1  4.641853 10.235457 2.078368
343 18 1  2.360031 9.155172 1.193778
344 18 1  3.427183 7.989415 0.480624
345 18 1  5.310253 7.432500 0.801489
346 18 1  5.154711 6.220722 1.332103
347 18 1  5.175245 6.832355 23.306693
348 18 1  3.089136 6.724765 21.837726
349 18 1  3.603197 5.686735 20.924577
350 18 1  2.478264 5.285745 19.317032
351 18 2  2.682389 4.356426 19.945946
352 18 2  3.047949 4.057178 19.744821
353 18 2  3.378382 4.198444 20.149290
354 18 2  3.064658 2.337316 20.658126
355 18 2  2.338777 1.570136 20.766803
356 18 2  3.322780 3.389117 20.429552
357 18 2  1.737754 4.366242 21.616095
358 18 2  2.783635 3.117721 24.205577
359 18 2  2.434097 3.950873 22.689709
360 18 2  2.439191 5.630208 21.981069
361 19 1  0.185495 13.678807 3.105846
362 19 1  23.921752 14.790082 4.758035
363 19 1  23.476244 15.041605 4.032687
364 19 1  23.947714 12.278830 2.673992
365 19 1  22.944015 10.730633 0.656351
366 19 1  22.053495 9.961509 1.242723
367 19 1  20.676376 9.832920 2.133686
368 19 1  21.089535 8.917942 2.153944
369 19 1  21.040213 7.630802 1.668207
370 19 1  21.679238 6.529049 1.481877
371 19 2  21.223606 7.415538 3.810679
372 19 2  21.732454 8.817076 3.770116
373 19 2  21.438984 9.272600 3.506631
374 19 2  20.797487 9.049587 2.897558
375 19 2  23.013133 8.693251 2.386515
376 19 2  21.004403 9.566374 2.327763
377 19 2  20.267539 9.634674 0.271717
378 19 2  20.623918 9.579434 23.650535
379 19 2  19.741256 9.053243 24.258024
380 19 2  19.618889 9.298974 23.143486
381 20 1  0.110546 6.622041 22.005564
382 20 1  24.606272 8.968956 21.814131
383 20 1  24.478206 7.906219 22.519416
384 20 1  24.005429 9.509597 20.709879
385 20 1  24.740454 7.610791 19.414621
386 20 1  23.738602 6.745874 20.135015
387 20 1  24.543428 5.031801 21.422988
388 20 1  1.097822 4.328779 20.933090
389 20 1  0.514820 4.645511 19.688507
390 20 1  2.137651 6.045823 20.130294
391 20 2  1.908964 5.139553 20.368640
392 20 2  2.676289 4.711715 21.397420
393 20 2  3.101915 4.839715 22.455019
394 20 2  3.774748 3.332866 22.016372
395 20 2  4.046674 3.538537 22.230288
396 20 2  2.482267 2.537125 22.378828
397 20 2  2.397144 3.335813 22.712991
398 20 2  2.673812 3.982073 23.460144
399 20 2  3.377619 3.920483 24.809543
400 20 2  2.702617 4.684913 24.711640
401 21 1  21.422025 22.337060 19.444416
402 21 1  20.896781 21.325552 19.631157
403 21 1  20.012121 21.568746 19.314405
404 21 1  21.715647 20.439191 18.974881
405 21 1  23.208434 19.494363 20.061163
406 21 1  24.325040 18.008934 22.600340
407 21 1  23.999113 17.748992 23.283010
408 21 1  22.902297 17.828716 23.323306
409 21 1  22.118603 17.493016 23.403373
410 21 1  22.853891 19.198078 23.521021
411 21 2  22.560715 18.232713 22.386840
412 21 2  22.645643 17.665851 20.901132
413 21 2  22.835646 19.516434 21.756952
414 21 2  23.333575 20.290796 20.936365
415 21 2  23.775460 19.653469 20.511448
416 21 2  0.664385 18.683388 20.825739
417 21 2  24.912626 18.262320 20.394413
418 21 2  0.781015 17.296278 20.344348
419 21 2  2.208891 16.416285 19.654837
420 21 2  3.857923 15.806809 21.240090
421 22 1  2.222997 11.282931 6.840911
422 22 1  3.371008 10.721210 6.802197
423 22 1  1.829477 10.716391 5.057118
424 22 1  1.395827 11.134699 5.908133
425 22 1  1.198179 10.356384 6.387831
426 22 1  2.214612 10.160071 4.648660
427 22 1  3.814668 9.808986 3.158691
428 22 1  4.258324 9.984722 3.493887
429 22 1  4.766951 10.686114 3.046778
430 22 1  4.443576 10.668199 3.499870
431 22 2  6.040273 11.111770 4.921087
432 22 2  7.310965 11.581813 5.228391
433 22 2  5.873121 13.890074 4.215579
434 22 2  6.171383 13.734878 3.365297
435 22 2  6.320201 14.320194 3.677427
436 22 2  8.199610 13.746212 1.972348
437 22 2  8.567639 14.069829 0.764410
438 22 2  9.002273 14.279550 0.793328
439 22 2  10.418958 14.169852 24.708645
440 22 2  11.251086 14.031033 1.102048
441 23 1  2.412861 8.126171 17.620627
442 23 1  1.417109 6.169911 14.695391
443 23 1  3.390711 5.837514 15.063024
444 23 1  1.841579 6.244587 13.589795
445 23 1  2.275262 5.418844 14.253023
446 23 1  1.348650 6.458188 14.345791
447 23 1  1.701062 6.661123 13.752631
448 23 1  24.583214 5.747366 12.771213
449 23 1  0.358158 6.537733 12.833321
450 23 1  0.230629 5.811228 11.850234
451 23 2  0.897218 7.998963 12.559181
452 23 2  0.294265 7.411418 10.580123
453 23 2  1.989228 8.673575 10.768461
454 23 2  1.788068 7.924161 10.374295
455 23 2  0.170944 6.886235 9.848460
456 23 2  24.070285 7.148724 9.398151
457 23 2  22.917567 4.756278 9.747289
458 23 2  21.369239 4.244448 9.356665
459 23 2  18.747783 3.647737 9.141686
460 23 2  19.814301 3.905231 9.025064
461 24 1  10.292929 9.656871 11.716876
462 24 1  9.243993 10.029684 11.749278
463 24 1  10.867095 11.782981 12.869434
464 24 1  9.910363 10.062925 13.363232
465 24 1  9.350897 10.776097 13.780640
466 24 1  7.446837 14.207129 13.213319
467 24 1  8.606617 14.855517 13.293655
468 24 1  8.077365 14.832025 15.025123
469 24 1  8.145520 15.481446 13.691896
470 24 1  8.851483 16.318701 14.764129
471 24 2  8.419652 15.673824 14.098229
472 24 2  9.858702 16.247145 15.156641
473 24 2  10.215375 16.083745 15.928210
474 24 2  8.489139 15.327803 15.505571
475 24 2  8.157385 14.630260 14.616880
476 24 2  7.174603 16.255933 14.702654
477 24 2  7.104680 16.246535 14.571771
478 24 2  6.975751 15.621654 15.842615
479 24 2  5.157708 15.722159 14.295576
480 24 2  4.085220 14.190867 16.701172
481 25 1  11.339147 15.926715 9.939233
482 25 1  12.174581 14.743133 12.170511
483 25 1  12.684489 14.499460 12.678856
484 25 1  11.384833 14.397844 12.482524
485 25 1  11.071123 16.622705 12.351583
486 25 1  9.757368 17.765484 12.704116
487 25 1  10.541713 19.922378 14.123144
488 25 1  10.302726 19.348698 13.964717
489 25 1  10.233878 20.094054 12.342380
490 25 1  10.838600 20.682795 9.989107
491 25 2  12.532308 21.209125 9.716805
492 25 2  10.525943 20.461320 9.879696
493 25 2  12.744296 19.946120 9.500940
494 25 2  12.079310 20.385649 11.783580
495 25 2  13.133649 21.118771 13.381871
496 25 2  11.335074 18.748507 12.065940
497 25 2  12.185520 17.750780 10.028655
498 25 2  13.201898 18.057056 9.925542
499 25 2  12.934085 19.767193 9.530916
500 25 2  12.440921 20.487740 10.425835
501 26 1  6.964617 23.412743 22.737242
502 26 1  6.984622 22.830315 23.798988
503 26 1  7.491793 22.227474 23.700374
504 26 1  8.136112 22.373688 23.320810
505 26 1  8.892218 21.886822 22.894636
506 26 1  8.139719 21.921664 22.306098
507 26 1  8.222884 20.112331 21.148374
508 26 1  8.517043 19.385735 20.147460
509 26 1  8.075164 19.064095 19.099310
510 26 1  8.408670 19.273661 20.743527
511 26 2  8.118511 20.141561 20.664817
512 26 2  9.055631 22.098327 19.419910
513 26 2  7.825514 21.586097 19.137358
514 26 2  7.512853 19.703601 19.839873
515 26 2  8.219745 21.548383 20.104242
516 26 2  7.807479 21.945255 21.201970
517 26 2  10.006888 23.404884 22.908037
518 26 2  10.114375 24.600513 21.835389
519 26 2  11.745370 0.778314 23.866809
520 26 2  10.665562 1.441814 24.005798
521 27 1  8.459302 20.134427 23.988886
522 27 1  10.218667 20.113475 24.531592
523 27 1  10.825882 20.430249 24.353189
524 27 1  11.767786 21.409584 23.058024
525 27 1  11.556528 20.825685 22.780664
526 27 1  10.660691 22.889877 22.288843
527 27 1  10.335774 22.335983 23.571912
528 27 1  11.748391 22.631196 23.172020
529 27 1  10.003328 23.344821 23.142319
530 27 1  7.728031 23.893106 23.014465
531 27 2  8.604354 23.369878 22.763552
532 27 2  9.573316 23.877517 24.457713
533 27 2  11.172866 0.516668 0.367246
534 27 2  10.034682 24.231053 24.571863
535 27 2  9.962344 24.262523 0.827757
536 27 2  9.243896 23.260426 0.044822
537 27 2  8.483785 23.246015 24.328973
538 27 2  9.265209 24.184419 23.197723
539 27 2  9.556493 24.531327 0.092043
540 27 2  9.979083 0.237267 0.321467
541 28 1  16.578107 22.524595 11.449924
542 28 1  17.447214 22.526231 10.286719
543 28 1  18.384874 21.890377 12.587473
544 28 1  17.542828 22.059277 13.572991
545 28 1  16.071841 21.182890 13.265043
546 28 1  14.804943 22.506377 11.492027
547 28 1  16.041778 23.070089 11.485745
548 28 1  14.265153 22.507376 11.049637
549 28 1  14.853655 23.388931 11.312540
550 28 1  14.895057 24.318958 11.021970
551 28 2  14.117520 24.576201 11.894025
552 28 2  15.625742 23.739328 12.947704
553 28 2  14.748312 22.813345 12.366464
554 28 2  12.941383 23.940481 13.947933
555 28 2  12.625508 23.742166 14.088823
556 28 2  11.604587 23.856105 12.402107
557 28 2  13.083686 24.575927 11.336587
558 28 2  12.636196 23.055870 10.503291
559 28 2  14.506012 22.354851 12.169550
560 28 2  13.447520 22.270216 12.229667
561 29 1  7.279631 9.601410 24.267875
562 29 1  7.380716 9.293690 24.888962
563 29 1  7.838926 8.888211 0.148422
564 29 1  8.068002 8.595501 1.172085
565 29 1  9.404185 7.517582 1.834359
566 29 1  9.960720 6.116298 1.239921
567 29 1  9.188681 6.579721 1.719771
568 29 1  10.165946 6.706914 1.654479
569 29 1  11.397940 7.878568 24.454170
570 29 1  10.958655 9.160322 24.921395
571 29 2  11.887312 10.303223 24.396751
572 29 2  11.666216 11.810140 24.927552
573 29 2  12.402796 11.927661 1.657051
574 29 2  12.502319 12.576844 3.519396
575 29 2  12.269795 11.792183 3.931868
576 29 2  11.420153 11.400955 4.746200
577 29 2  13.716599 13.674110 4.436674
578 29 2  12.188444 14.182622 4.297877
579 29 2  11.423687 13.231483 4.145979
580 29 2  10.476406 11.350499 3.160055
581 30 1  6.430119 23.040147 4.632202
582 30 1  6.853648 22.978869 5.768454
583 30 1  6.240258 22.347986 3.981133
584 30 1  8.368976 22.734698 4.350796
585 30 1  8.518420 23.518325 3.566615
586 30 1  10.219122 24.146549 2.761308
587 30 1  8.998805 23.720418 3.901315
588 30 1  8.174485 22.517801 3.629040
589 30 1  8.700358 24.261255 4.782943
590 30 1  8.962671 22.988787 3.993912
591 30 2  10.649776 23.195598 3.710735
592 30 2  10.910643 22.743004 3.145725
593 30 2  11.547713 22.839708 2.565573
594 30 2  11.066075 23.755075 3.329344
595 30 2  11.865880 24.971039 2.613816
596 30 2  10.885954 24.086026 3.420337
597 30 2  10.557260 24.410827 2.783664
598 30 2  11.136593 23.883682 3.128756
599 30 2  10.135055 24.761169 2.266722
600 30 2  10.671052 0.542492 0.820582
601 31 1  20.823905 24.833000 17.258462
602 31 1  21.007466 0.287413 17.015264
603 31 1  20.352521 24.514453 16.402749
604 31 1  20.414362 24.973592 15.800707
605 31 1  21.553312 0.203162 16.464969
606 31 1  21.250525 1.753083 16.121792
607 31 1  20.346450 0.261248 15.817935
608 31 1  18.448505 1.956641 15.605589
609 31 1  17.117332 1.950697 17.321249
610 31 1  15.170918 1.004526 18.711463
611 31 2  15.371853 0.727713 19.560266
612 31 2  16.828088 0.645440 17.129807
613 31 2  17.295843 24.516693 16.647970
614 31 2  17.044508 0.673487 17.048113
615 31 2  15.405562 1.243474 15.286803
616 31 2  16.429729 1.690260 15.951726
617 31 2  15.305141 1.856669 15.033129
618 31 2  15.685323 2.326629 14.843588
619 31 2  14.949014 2.910667 14.956316
620 31 2  14.535203 2.473477 14.507219
621 32 1  3.504985 0.745619 8.331028
622 32 1  2.450188 0.960014 8.592802
623 32 1  2.166616 1.656555 6.783232
624 32 1  1.696101 1.782913 6.005263
625 32 1  0.125181 1.374666 6.571358
626 32 1  23.664531 1.545146 7.544741
627 32 1  23.114974 2.125947 8.211502
628 32 1  22.917752 1.115479 9.108207
629 32 1  22.127673 1.078238 8.953433
630 32 1  21.718909 0.262207 7.773509
631 32 2  21.967645 24.634701 7.888528
632 32 2  21.290117 0.029891 6.921626
633 32 2  21.418425 23.698477 6.840083
634 32 2  22.463075 23.641593 6.394235
635 32 2  20.987933 24.262246 7.464366
636 32 2  21.531313 24.908482 7.429667
637 32 2  22.441492 1.677773 6.283100
638 32 2  22.308619 1.186923 6.034588
639 32 2  23.590511 1.366785 4.908595
640 32 2  24.384124 1.001577 4.520870
641 33 1  20.195767 12.246196 1.377180
642 33 1  19.243454 12.884269 24.234659
643 33 1  18.664459 14.360365 1.009686
644 33 1  19.366088 13.510009 1.058044
645 33 1  17.348440 15.612195 0.985606
646 33 1  16.522267 17.158201 0.598956
647 33 1  18.470142 18.082933 1.287658
648 33 1  19.520066 17.976371 2.760089
649 33 1  21.855165 17.426084 1.783494
650 33 1  22.147730 16.625819 3.091135
651 33 2  22.777033 17.100743 3.526834
652 33 2  23.379455 17.669251 3.071061
653 33 2  24.768424 18.070129 1.528394
654 33 2  23.237433 19.031969 1.446674
655 33 2  23.388174 18.714267 1.411751
656 33 2  23.413010 18.834367 3.127057
657 33 2  23.657795 20.323749 1.448978
658 33 2  22.675026 20.415483 1.690893
659 33 2  22.601070 21.779701 0.880807
660 33 2  22.008002 23.785399 24.507178
661 34 1  3.853435 6.980390 21.061928
662 34 1  4.116367 7.497746 20.292074
663 34 1  4.819330 8.603928 20.014805
664 34 1  3.895932 7.105576 19.733803
665 34 1  4.057368 4.581776 19.774558
666 34 1  4.929927 2.412788 21.330106
667 34 1  5.014811 3.027035 20.738468
668 34 1  4.662746 2.556821 19.062383
669 34 1  5.403904 2.533991 17.703801
670 34 1  5.979694 1.947729 19.151360
671 34 2  5.242828 2.095918 19.093384
672 34 2  6.668111 3.158623 19.529664
673 34 2  6.620991 3.672279 18.701242
674 34 2  6.603599 3.833690 19.866356
675 34 2  6.136984 2.861874 19.499047
676 34 2  8.832217 3.828184 19.932043
677 34 2  9.242696 3.407308 19.434809
678 34 2  7.148969 3.166086 18.569342
679 34 2  6.610514 2.188304 19.182795
680 34 2  6.921156 3.136913 18.704045
681 35 1  19.069522 22.828289 1.469443
682 35 1  19.129315 23.796094 2.126294
683 35 1  19.583252 23.565522 1.733709
684 35 1  19.794146 24.000084 0.770620
685 35 1  19.867566 23.503446 0.736203
686 35 1  19.140730 24.522890 24.812102
687 35 1  18.314514 0.421114 1.329478
688 35 1  19.825262 0.595073 2.468276
689 35 1  20.186376 0.863520 3.940362
690 35 1  21.278391 0.685283 2.942073
691 35 2  21.363407 0.280581 3.037904
692 35 2  21.396086 24.424410 3.706917
693 35 2  20.986633 23.546303 3.950666
694 35 2  21.479416 0.096673 3.377367
695 35 2  23.098902 1.770444 3.867435
696 35 2  22.995336 1.814618 3.969247
697 35 2  22.815415 3.347409 6.001410
698 35 2  22.964757 2.698736 6.944981
699 35 2  23.441921 3.561113 5.820537
700 35 2  23.788546 4.108191 4.647230
701 36 1  8.540945 7.682234 20.558925
702 36 1  8.830634 5.891420 20.249343
703 36 1  9.767618 7.484234 21.442516
704 36 1  8.166846 8.871726 22.093142
705 36 1  6.862803 8.490533 20.757665
706 36 1  8.439284 8.145113 22.021905
707 36 1  8.261813 7.857209 21.474674
708 36 1  6.965173 7.166872 21.067136
709 36 1  7.265506 6.285937 21.986634
710 36 1  7.568859 5.601710 21.104340
711 36 2  8.408990 5.810640 22.182814
712 36 2  8.024515 6.799662 22.497098
713 36 2  9.590307 6.330252 22.049874
714 36 2  11.000607 6.912017 21.880717
715 36 2  11.338172 7.703943 22.059144
716 36 2  11.856235 7.995787 20.564332
717 36 2  11.227643 6.593548 20.779119
718 36 2  12.096181 5.532558 21.327237
719 36 2  11.589350 5.084062 22.173224
720 36 2  10.201217 3.671653 23.429649
721 37 1  15.972001 2.366054 18.890070
722 37 1  14.350172 1.876353 19.754822
723 37 1  14.964497 2.797109 19.336978
724 37 1  16.692020 3.091248 19.975153
725 37 1  17.048587 2.829445 19.236780
726 37 1  17.106363 1.996842 18.175892
727 37 1  17.023603 2.600342 18.202635
728 37 1  18.670256 3.614633 18.207868
729 37 1  18.980724 5.492737 19.663078
730 37 1  19.255509 7.233296 19.091620
731 37 2  19.349298 5.501975 18.640336
732 37 2  18.618645 6.209475 19.510994
733 37 2  20.062812 6.793519 19.580588
734 37 2  19.398332 6.135041 19.430507
735 37 2  20.418097 6.010193 19.500092
736 37 2  20.314025 6.402089 19.260679
737 37 2  20.540452 6.324226 18.366993
738 37 2  20.478958 6.102064 16.175764
739 37 2  19.786180 4.374256 16.728790
740 37 2  19.389820 4.925718 16.905626
741 38 1  1.902011 5.297495 3.921464
742 38 1  3.166555 6.241967 2.721381
743 38 1  0.357371 6.514448 3.238293
744 38 1  24.162454 6.053058 3.137215
745 38 1  23.929691 7.652306 2.049721
746 38 1  23.462969 9.635687 2.655909
747 38 1  23.532646 10.495968 3.469280
748 38 1  23.389701 9.907488 2.148143
749 38 1  22.815224 10.132124 0.689518
750 38 1  21.906432 9.703630 0.837658
751 38 2  21.125130 8.492923 2.737708
752 38 2  20.661853 8.534006 3.161959
753 38 2  19.172267 9.344286 4.028449
754 38 2  18.414338 9.980042 4.816141
755 38 2  18.485535 10.129905 4.275296
756 38 2  16.020118 9.285591 4.277454
757 38 2  16.344201 9.799746 1.824393
758 38 2  15.326833 10.602072 1.703061
759 38 2  16.374316 10.125926 2.906180
760 38 2  17.535886 11.107282 3.192139
761 39 1  9.328001 17.571708 16.044108
762 39 1  9.625028 16.936460 16.630491
763 39 1  10.110192 16.481341 18.464106
764 39 1  9.323940 16.161309 18.034527
765 39 1  8.874004 15.099164 16.778972
766 39 1  7.852003 14.587005 16.444725
767 39 1  8.796509 15.227720 15.517145
768 39 1  10.357181 14.881319 15.756726
769 39 1  10.421448 14.584096 16.908480
770 39 1  10.827012 14.024309 16.276140
771 39 2  12.349413 13.453785 16.663822
772 39 2  12.725664 13.551685 16.690316
773 39 2  14.644649 12.304525 16.430792
774 39 2  13.674709 13.556300 19.511354
775 39 2  12.676443 12.234644 20.447661
776 39 2  12.923095 11.428484 20.760180