arrrr

1000 atoms
0 bonds
0 angles

2 atom types
0 bond types
0 angle types

0.000000 10.000000 xlo xhi
0.000000 10.000000 ylo yhi
0.000000 10.000000 zlo zhi

Masses

1 1.000000
2 1.000000

Atoms

1 1 1 1 5.777082 2.009952 8.936224 
2 2 1 1 3.909433 5.250004 3.141268 
3 3 1 1 4.723078 2.994745 9.694526 
4 4 1 1 5.456838 9.258750 7.044190 
5 5 1 1 3.588467 4.459359 4.941335 
6 6 1 1 4.649464 1.935855 5.840672 
7 7 1 1 5.292599 5.950170 4.311838 
8 8 1 1 6.603467 4.651642 7.138180 
9 9 1 1 6.337842 5.433305 5.338795 
10 10 1 1 2.880658 6.058817 0.742952 
11 11 1 1 3.474221 4.079778 7.372901 
12 12 1 1 7.337338 1.931507 9.061220 
13 13 1 1 4.832376 5.675962 6.604934 
14 14 1 1 6.116500 0.338702 0.473578 
15 15 1 1 6.700383 7.671702 2.037723 
16 16 1 1 3.706507 4.729350 6.315584 
17 17 1 1 3.767356 3.761866 7.842475 
18 18 1 1 5.492943 2.224626 8.107114 
19 19 1 1 4.003863 2.823638 3.210225 
20 20 1 1 5.686043 5.076626 7.585686 
21 21 1 1 5.390757 2.531054 5.300339 
22 22 1 1 5.001242 5.303609 8.471931 
23 23 1 1 6.345820 8.301864 1.456804 
24 24 1 1 6.820808 8.635888 2.580093 
25 25 1 1 6.586580 2.694572 2.833850 
26 26 1 1 3.996304 9.840786 6.070658 
27 27 1 1 4.087556 7.142571 0.800078 
28 28 1 1 6.812157 7.072648 3.906069 
29 29 1 1 3.634325 6.236863 2.664644 
30 30 1 1 3.805101 9.133235 9.607104 
31 31 1 1 6.699764 8.302067 6.716906 
32 32 1 1 2.507287 0.770657 5.232018 
33 33 1 1 5.241134 6.129362 5.103383 
34 34 1 1 6.538535 8.548111 6.221355 
35 35 1 1 3.852532 3.367814 8.261705 
36 36 1 1 5.737164 2.444679 0.567761 
37 37 1 1 6.099435 0.283637 6.553403 
38 38 1 1 5.817720 2.432989 3.526468 
39 39 1 1 4.178742 2.123157 4.343227 
40 40 1 1 2.583891 2.251753 2.720035 
41 41 1 1 3.313723 9.520963 9.522705 
42 42 1 1 5.934404 3.551673 1.693915 
43 43 1 1 4.624207 1.822058 4.762946 
44 44 1 1 5.489575 6.605622 2.644454 
45 45 1 1 5.805702 4.848569 2.085635 
46 46 1 1 5.402055 7.561221 3.453954 
47 47 1 1 5.134641 8.501681 7.099770 
48 48 1 1 5.996421 3.142001 5.250518 
49 49 1 1 5.728609 6.757613 7.177016 
50 50 1 1 4.300021 9.919224 3.587858 
51 51 1 1 6.959183 4.119233 1.462987 
52 52 1 1 3.041889 8.775917 6.154717 
53 53 1 1 4.663113 9.412333 7.888807 
54 54 1 1 6.524566 7.008689 5.942986 
55 55 1 1 3.340409 7.426027 3.509452 
56 56 1 1 6.999852 3.340103 9.604749 
57 57 1 1 3.265310 0.084414 3.590561 
58 58 1 1 2.707022 7.321644 5.036713 
59 59 1 1 3.091047 4.271312 8.868447 
60 60 1 1 4.208825 3.170680 8.316580 
61 61 1 1 5.135557 5.042885 6.861340 
62 62 1 1 3.486207 0.660439 7.293253 
63 63 1 1 6.343796 7.956052 9.243548 
64 64 1 1 6.186029 9.894825 3.449695 
65 65 1 1 2.824148 6.944580 0.421482 
66 66 1 1 6.940760 1.275772 1.518030 
67 67 1 1 7.457893 4.906138 1.695426 
68 68 1 1 7.018542 3.231069 4.274867 
69 69 1 1 2.579844 6.007522 4.713734 
70 70 1 1 5.620073 1.490180 4.565958 
71 71 1 1 7.372310 4.646349 2.307152 
72 72 1 1 4.708990 3.846202 5.848515 
73 73 1 1 7.421369 8.541098 8.823311 
74 74 1 1 5.627962 9.451014 5.983196 
75 75 1 1 7.279310 9.381919 9.698728 
76 76 1 1 2.659537 9.796700 3.782837 
77 77 1 1 4.152346 7.828407 5.696005 
78 78 1 1 4.848448 3.329343 9.821087 
79 79 1 1 7.301029 8.916999 4.668680 
80 80 1 1 4.224910 3.680416 6.054484 
81 81 1 1 4.797285 7.204858 6.600369 
82 82 1 1 4.451795 7.396559 6.464255 
83 83 1 1 5.093501 1.503479 2.453242 
84 84 1 1 2.940622 2.432922 8.361654 
85 85 1 1 6.302767 4.260071 2.811800 
86 86 1 1 2.826305 6.531102 3.221646 
87 87 1 1 3.465377 5.541913 7.384088 
88 88 1 1 3.657131 9.009536 6.878895 
89 89 1 1 3.202526 4.919406 7.854480 
90 90 1 1 2.924672 0.689434 8.767101 
91 91 1 1 6.844048 4.283677 6.965107 
92 92 1 1 4.510661 3.882676 6.273351 
93 93 1 1 6.483335 6.776323 2.252782 
94 94 1 1 4.651999 7.553151 1.777805 
95 95 1 1 3.684011 8.038277 4.350089 
96 96 1 1 4.863400 6.414602 4.409077 
97 97 1 1 4.059787 7.899320 6.470292 
98 98 1 1 2.831799 0.253967 2.690266 
99 99 1 1 4.724923 5.356660 0.216630 
100 100 1 1 3.609125 0.823084 4.600089 
101 101 1 1 3.549273 0.488006 5.331735 
102 102 1 1 7.255321 4.240746 8.572515 
103 103 1 1 5.212852 8.961509 2.234636 
104 104 1 1 7.354349 4.189605 5.406258 
105 105 1 1 2.954522 8.877915 5.152646 
106 106 1 1 6.492439 1.395873 7.575320 
107 107 1 1 6.147043 2.257719 7.405574 
108 108 1 1 3.053563 5.081615 2.789773 
109 109 1 1 6.136042 2.815664 8.046203 
110 110 1 1 6.392432 0.083153 4.603351 
111 111 1 1 6.939561 7.211661 8.875890 
112 112 1 1 2.823094 8.109320 4.391591 
113 113 1 1 7.276834 3.762964 6.301029 
114 114 1 1 5.323659 5.188222 8.029720 
115 115 1 1 7.495252 3.270491 6.959202 
116 116 1 1 4.704263 3.537708 4.242569 
117 117 1 1 3.932203 5.372055 3.568086 
118 118 1 1 7.389866 7.985397 6.334149 
119 119 1 1 3.187869 8.516727 2.286994 
120 120 1 1 4.450643 7.999401 8.957825 
121 121 1 1 5.678602 2.971810 7.499986 
122 122 1 1 2.768258 1.124046 5.218024 
123 123 1 1 4.725973 4.404205 1.114833 
124 124 1 1 6.360609 2.960645 2.813534 
125 125 1 1 2.677343 6.450223 7.726742 
126 126 1 1 6.654721 0.984703 1.939318 
127 127 1 1 5.871709 9.602293 9.921049 
128 128 1 1 3.274623 3.247421 9.952204 
129 129 1 1 6.363733 2.101186 6.661672 
130 130 1 1 6.859798 9.653485 5.185761 
131 131 1 1 6.066506 2.133493 0.401119 
132 132 1 1 4.688647 6.699020 1.081735 
133 133 1 1 4.329166 8.010838 2.034624 
134 134 1 1 6.138299 2.445486 8.384563 
135 135 1 1 5.001351 0.792984 3.712199 
136 136 1 1 4.198271 5.555937 0.097134 
137 137 1 1 5.417085 8.194859 2.287259 
138 138 1 1 2.977670 1.443678 2.726308 
139 139 1 1 6.532939 3.897493 8.322877 
140 140 1 1 3.195923 9.777237 4.962605 
141 141 1 1 5.661835 6.864461 5.229362 
142 142 1 1 6.462673 4.964666 8.450142 
143 143 1 1 2.622358 9.440429 8.239611 
144 144 1 1 3.161465 9.923275 3.502952 
145 145 1 1 5.137825 5.178896 1.451214 
146 146 1 1 7.365847 5.701270 2.449183 
147 147 1 1 6.765876 6.582025 4.066468 
148 148 1 1 2.767800 8.331275 0.755045 
149 149 1 1 6.815132 9.177857 4.059650 
150 150 1 1 4.252781 3.760597 4.741813 
151 151 1 1 3.412085 0.741720 7.416868 
152 152 1 1 5.095291 7.336543 8.108328 
153 153 1 1 4.102263 5.032150 1.157191 
154 154 1 1 7.018822 3.512022 1.111367 
155 155 1 1 7.133300 8.956200 0.033803 
156 156 1 1 6.762853 8.411006 8.369767 
157 157 1 1 2.898136 9.666322 9.025142 
158 158 1 1 4.919703 6.414919 6.638876 
159 159 1 1 5.361842 3.734041 0.338775 
160 160 1 1 7.330587 4.092115 5.484304 
161 161 1 1 3.480937 8.744334 0.578274 
162 162 1 1 6.407291 6.983262 0.600747 
163 163 1 1 6.763610 6.901982 2.887091 
164 164 1 1 4.070044 8.227475 5.167487 
165 165 1 1 6.193495 3.110198 2.846453 
166 166 1 1 7.289901 1.349423 4.533805 
167 167 1 1 3.429499 8.539451 2.819180 
168 168 1 1 5.507248 7.928850 3.667259 
169 169 1 1 3.861089 5.499961 1.955498 
170 170 1 1 5.246111 8.388836 8.476385 
171 171 1 1 4.666133 1.685735 8.069419 
172 172 1 1 6.208877 2.100799 2.852846 
173 173 1 1 6.088748 8.486047 0.113125 
174 174 1 1 5.038598 6.509585 3.603064 
175 175 1 1 4.608434 2.931497 0.549221 
176 176 1 1 3.881305 8.986558 7.195382 
177 177 1 1 6.580858 3.619665 1.005933 
178 178 1 1 4.777767 7.029265 6.237451 
179 179 1 1 4.680707 2.170823 3.868927 
180 180 1 1 3.137442 2.528671 1.212983 
181 181 1 1 7.228942 4.817127 7.451807 
182 182 1 1 7.428000 2.758612 1.698350 
183 183 1 1 3.581217 7.156896 2.741909 
184 184 1 1 4.744604 4.559065 6.787888 
185 185 1 1 3.974666 1.837191 9.168315 
186 186 1 1 5.910958 2.260987 7.339774 
187 187 1 1 4.178667 7.076245 1.824883 
188 188 1 1 6.437036 4.356557 7.168242 
189 189 1 1 6.791156 1.188460 2.384993 
190 190 1 1 4.211367 6.377754 9.740907 
191 191 1 1 6.445771 3.060401 3.748280 
192 192 1 1 4.287319 3.042189 8.353263 
193 193 1 1 6.141074 5.034628 1.039032 
194 194 1 1 4.459921 3.048676 1.744906 
195 195 1 1 5.447697 2.380231 5.708237 
196 196 1 1 3.440800 4.674513 6.301197 
197 197 1 1 2.766469 9.518476 8.705504 
198 198 1 1 5.686667 4.944480 4.432122 
199 199 1 1 4.158115 9.328147 1.146166 
200 200 1 1 4.494354 8.803147 0.038873 
201 201 1 1 2.805614 3.207466 5.595860 
202 202 1 1 7.364975 6.678786 2.603053 
203 203 1 1 3.409613 9.281373 9.326752 
204 204 1 1 4.609822 3.315463 9.152587 
205 205 1 1 4.584760 9.061918 7.293508 
206 206 1 1 5.839595 3.255137 3.495796 
207 207 1 1 4.318065 6.625021 5.658945 
208 208 1 1 4.963128 3.243246 5.021887 
209 209 1 1 3.064832 7.738286 5.270177 
210 210 1 1 5.714371 9.829150 3.682855 
211 211 1 1 2.735260 5.778070 4.876069 
212 212 1 1 5.098336 4.764974 7.660212 
213 213 1 1 6.374490 8.733980 9.162030 
214 214 1 1 2.996023 9.245584 8.341018 
215 215 1 1 4.216868 0.254595 2.008509 
216 216 1 1 4.287666 7.512582 5.925733 
217 217 1 1 7.204418 2.992018 6.467191 
218 218 1 1 6.090308 3.101839 9.656655 
219 219 1 1 7.360088 0.307901 0.426496 
220 220 1 1 4.036438 3.638285 1.206331 
221 221 1 1 3.479549 7.377558 5.377740 
222 222 1 1 5.908555 9.409808 3.175056 
223 223 1 1 5.543061 1.077525 7.758113 
224 224 1 1 4.553879 4.193352 5.090169 
225 225 1 1 5.694336 2.943064 0.008692 
226 226 1 1 5.789821 9.413404 7.187420 
227 227 1 1 6.544068 8.088092 3.034025 
228 228 1 1 6.668731 3.288348 9.532317 
229 229 1 1 2.845643 4.897260 6.116054 
230 230 1 1 4.582379 8.008700 0.443766 
231 231 1 1 5.279922 3.754327 3.668331 
232 232 1 1 6.603270 7.864971 1.663375 
233 233 1 1 7.136156 6.848078 4.223542 
234 234 1 1 5.157638 9.561193 2.492649 
235 235 1 1 5.487440 5.796098 5.187789 
236 236 1 1 5.176129 2.528515 5.159534 
237 237 1 1 5.661042 1.601098 1.625833 
238 238 1 1 3.985642 8.672945 9.557432 
239 239 1 1 5.108123 7.082599 9.906775 
240 240 1 1 4.198140 6.733393 7.028199 
241 241 1 1 5.187375 3.692150 7.233730 
242 242 1 1 5.360871 5.757361 1.787328 
243 243 1 1 4.893152 0.740307 0.951350 
244 244 1 1 3.220102 5.782864 6.299802 
245 245 1 1 5.392525 7.734138 4.146445 
246 246 1 1 3.283938 4.860865 4.753478 
247 247 1 1 6.303013 1.920213 1.827050 
248 248 1 1 7.345085 5.951085 6.952978 
249 249 1 1 6.243613 5.075090 9.780954 
250 250 1 1 3.688998 5.839966 7.899452 
251 251 1 1 4.858953 1.399997 2.597848 
252 252 1 1 4.022553 5.643071 4.455121 
253 253 1 1 6.002273 7.010702 4.548741 
254 254 1 1 4.833815 6.138344 0.932648 
255 255 1 1 2.847866 4.394803 0.554468 
256 256 1 1 2.601072 1.502173 3.642775 
257 257 1 1 3.470928 1.381595 7.866084 
258 258 1 1 5.736356 2.575808 3.399332 
259 259 1 1 2.896843 0.517050 7.354354 
260 260 1 1 4.774604 8.015219 6.103935 
261 261 1 1 6.405481 3.750577 9.626975 
262 262 1 1 4.806997 5.383490 4.002567 
263 263 1 1 4.743033 3.778670 4.460996 
264 264 1 1 5.421952 3.295977 2.758937 
265 265 1 1 3.876906 4.438738 2.262684 
266 266 1 1 4.990392 5.664787 8.732012 
267 267 1 1 3.919670 8.882526 6.563921 
268 268 1 1 3.889160 6.646736 2.137918 
269 269 1 1 4.097911 1.123908 4.171375 
270 270 1 1 4.816194 7.869855 3.122692 
271 271 1 1 2.816966 5.069135 4.835287 
272 272 1 1 7.492283 1.329884 9.975722 
273 273 1 1 5.507003 6.597247 6.865989 
274 274 1 1 6.096722 9.329367 2.188352 
275 275 1 1 3.993817 8.850833 2.072854 
276 276 1 1 6.112078 1.496263 5.521713 
277 277 1 1 6.043245 9.388939 2.810718 
278 278 1 1 3.078861 7.966728 0.659880 
279 279 1 1 2.867921 0.234674 8.509491 
280 280 1 1 3.892241 2.837509 9.554169 
281 281 1 1 6.307856 3.386037 6.276303 
282 282 1 1 6.719851 8.673499 8.260813 
283 283 1 1 5.502026 0.708652 4.256790 
284 284 1 1 5.459005 4.955415 6.765540 
285 285 1 1 5.601864 2.415620 2.569422 
286 286 1 1 4.938836 6.154688 8.997061 
287 287 1 1 7.184352 8.825678 6.414343 
288 288 1 1 3.057543 9.643969 6.405450 
289 289 1 1 3.108482 5.891553 2.606574 
290 290 1 1 4.790690 1.368597 3.781320 
291 291 1 1 7.367803 7.508797 2.530297 
292 292 1 1 3.093364 0.407972 1.067141 
293 293 1 1 6.138613 7.888349 4.028630 
294 294 1 1 4.518510 5.982069 0.237175 
295 295 1 1 6.289493 2.139995 1.827666 
296 296 1 1 4.404168 8.141050 2.300850 
297 297 1 1 4.988515 8.418955 2.379686 
298 298 1 1 5.454223 5.447956 1.035619 
299 299 1 1 6.763468 4.105325 8.322251 
300 300 1 1 5.166991 3.364055 8.151895 
301 301 1 1 6.302797 9.524089 6.966469 
302 302 1 1 7.178679 4.251516 3.603826 
303 303 1 1 7.184722 6.365434 6.950863 
304 304 1 1 4.915511 8.074638 0.615183 
305 305 1 1 7.461366 3.040392 9.524406 
306 306 1 1 2.992611 9.998988 6.836780 
307 307 1 1 6.790785 0.369316 7.404631 
308 308 1 1 3.259810 4.381619 6.099735 
309 309 1 1 4.928472 6.137293 6.953495 
310 310 1 1 7.271342 1.666378 1.987728 
311 311 1 1 3.036342 6.780475 3.935704 
312 312 1 1 3.102046 3.386957 2.094933 
313 313 1 1 4.765565 9.020539 7.439813 
314 314 1 1 5.195653 0.360885 2.428460 
315 315 1 1 4.033385 5.491144 3.886240 
316 316 1 1 4.096094 7.346241 8.055626 
317 317 1 1 7.018676 0.447650 8.679718 
318 318 1 1 3.527227 2.020800 4.698900 
319 319 1 1 5.321421 7.466607 0.708712 
320 320 1 1 2.577914 4.535114 5.579079 
321 321 1 1 5.866004 4.719759 7.097536 
322 322 1 1 5.719284 4.126962 6.889179 
323 323 1 1 6.707960 3.786904 9.735635 
324 324 1 1 3.306341 4.905222 0.030016 
325 325 1 1 4.493009 7.449417 1.596224 
326 326 1 1 5.612271 3.863418 2.703757 
327 327 1 1 2.597087 4.339674 5.163943 
328 328 1 1 3.454258 1.666811 8.102738 
329 329 1 1 3.484552 4.686601 4.825107 
330 330 1 1 5.599840 2.786017 5.629982 
331 331 1 1 5.979778 7.087659 0.302782 
332 332 1 1 7.423991 3.191323 0.284495 
333 333 1 1 4.766841 5.321810 3.825056 
334 334 1 1 3.390358 5.932376 0.406537 
335 335 1 1 7.336816 7.040928 2.676156 
336 336 1 1 5.694023 4.363752 1.645574 
337 337 1 1 7.007567 9.380680 0.002765 
338 338 1 1 5.729111 2.813646 7.951025 
339 339 1 1 5.045539 4.185840 6.742041 
340 340 1 1 2.897330 0.100288 3.629580 
341 341 1 1 4.559330 3.759853 7.856534 
342 342 1 1 4.638368 3.819075 3.411275 
343 343 1 1 5.329473 1.800087 2.570635 
344 344 1 1 3.062308 9.900478 1.192772 
345 345 1 1 6.532214 0.059309 5.916566 
346 346 1 1 6.175443 8.365775 0.792635 
347 347 1 1 6.613494 3.430903 3.861978 
348 348 1 1 5.980251 8.844175 3.713989 
349 349 1 1 4.576833 2.623334 0.784261 
350 350 1 1 4.311843 3.963941 2.874680 
351 351 1 1 5.442589 8.908808 5.272641 
352 352 1 1 5.045471 4.481270 5.152978 
353 353 1 1 4.710802 6.889050 8.986184 
354 354 1 1 7.182124 7.277359 8.542128 
355 355 1 1 5.646408 1.976552 1.491739 
356 356 1 1 3.010937 1.132212 6.897870 
357 357 1 1 6.282584 6.193062 9.771896 
358 358 1 1 7.463475 5.858669 2.718533 
359 359 1 1 5.540170 9.809612 8.315672 
360 360 1 1 7.005429 5.065077 0.921474 
361 361 1 1 5.952146 2.774089 5.456991 
362 362 1 1 3.644733 3.037805 9.722932 
363 363 1 1 6.924294 3.490828 6.233299 
364 364 1 1 5.328629 5.889089 1.878610 
365 365 1 1 2.925054 9.834139 7.552480 
366 366 1 1 4.895463 9.970201 3.909970 
367 367 1 1 4.558710 3.838130 7.734579 
368 368 1 1 5.863315 6.884736 0.167644 
369 369 1 1 7.005565 7.048516 5.093587 
370 370 1 1 6.849723 9.196168 1.745627 
371 371 1 1 7.157352 2.687594 0.563251 
372 372 1 1 7.242487 6.009180 4.940929 
373 373 1 1 5.079862 7.377095 4.695700 
374 374 1 1 6.567111 4.166970 9.992247 
375 375 1 1 4.761321 9.032142 5.936360 
376 376 1 1 6.728282 2.363337 2.723591 
377 377 1 1 4.509090 4.155846 2.179597 
378 378 1 1 4.418583 5.860105 3.932704 
379 379 1 1 4.973317 3.380871 0.912996 
380 380 1 1 4.825332 6.108569 6.502061 
381 381 1 1 5.827121 8.855262 3.479415 
382 382 1 1 4.417124 7.101306 2.623342 
383 383 1 1 6.585828 2.699123 4.426377 
384 384 1 1 6.192238 7.355577 2.557685 
385 385 1 1 5.739311 6.954288 8.018913 
386 386 1 1 4.569287 9.346726 4.513248 
387 387 1 1 3.021869 8.293931 9.631463 
388 388 1 1 3.670959 6.921954 2.109037 
389 389 1 1 4.778440 6.074031 0.285258 
390 390 1 1 3.307163 5.178533 9.607829 
391 391 1 1 2.534404 8.970201 2.813337 
392 392 1 1 2.503576 7.071494 4.678445 
393 393 1 1 6.733853 4.946935 4.608962 
394 394 1 1 6.698828 6.312677 4.171923 
395 395 1 1 4.964761 1.611417 3.295210 
396 396 1 1 3.777173 6.860955 4.153500 
397 397 1 1 4.955423 5.447610 1.720653 
398 398 1 1 4.510250 1.615057 6.463122 
399 399 1 1 2.568062 3.118545 3.798093 
400 400 1 1 2.576883 8.760831 0.228915 
401 401 1 1 6.460549 6.535484 8.772443 
402 402 1 1 7.071920 8.582248 0.738458 
403 403 1 1 2.509643 4.010060 3.135791 
404 404 1 1 5.149473 1.152012 4.539408 
405 405 1 1 3.631036 4.557067 8.335050 
406 406 1 1 5.513260 3.711527 2.514070 
407 407 1 1 3.850006 9.135535 0.716621 
408 408 1 1 5.148215 7.824641 7.581131 
409 409 1 1 7.323495 8.151607 3.885099 
410 410 1 1 4.735453 6.807881 0.276128 
411 411 1 1 2.948489 0.038682 4.307686 
412 412 1 1 6.187728 1.514063 6.190978 
413 413 1 1 3.777554 8.214175 0.426358 
414 414 1 1 6.627779 2.807043 1.653825 
415 415 1 1 4.107489 4.184315 1.021271 
416 416 1 1 5.743184 1.646323 8.782224 
417 417 1 1 3.539746 0.146238 8.070117 
418 418 1 1 7.252528 6.013887 1.775362 
419 419 1 1 3.107734 8.460857 8.697336 
420 420 1 1 5.133274 9.927937 0.050345 
421 421 1 1 3.480981 3.658786 1.850006 
422 422 1 1 6.213786 7.427194 5.421458 
423 423 1 1 3.831881 6.427357 6.595778 
424 424 1 1 3.826602 8.466204 4.325177 
425 425 1 1 4.846454 3.219999 7.609230 
426 426 1 1 6.573326 5.535830 4.337027 
427 427 1 1 3.855051 5.565532 0.701114 
428 428 1 1 3.233570 4.572330 7.558408 
429 429 1 1 6.471881 8.537820 8.433696 
430 430 1 1 5.058812 5.668596 7.229306 
431 431 1 1 6.343108 3.409467 2.259364 
432 432 1 1 5.392891 6.604805 3.013154 
433 433 1 1 4.949770 8.808133 1.783775 
434 434 1 1 6.336509 3.530052 6.024010 
435 435 1 1 2.892483 6.336736 5.950465 
436 436 1 1 4.175602 5.128434 3.080326 
437 437 1 1 4.996700 5.598605 8.468044 
438 438 1 1 6.391858 5.133031 6.273938 
439 439 1 1 4.000910 1.264366 7.927618 
440 440 1 1 4.443328 2.179784 1.287402 
441 441 1 1 6.203763 2.408793 0.999245 
442 442 1 1 4.654033 2.871270 6.178098 
443 443 1 1 7.350491 2.333154 2.066093 
444 444 1 1 3.615953 6.634455 2.063442 
445 445 1 1 6.807540 8.371171 0.558407 
446 446 1 1 4.975170 4.954447 9.492501 
447 447 1 1 6.575391 5.808233 5.001461 
448 448 1 1 2.829796 1.262124 2.335106 
449 449 1 1 6.783384 1.604235 3.733500 
450 450 1 1 6.987659 5.575048 6.005638 
451 451 1 1 3.406878 5.780311 1.405827 
452 452 1 1 7.064730 8.048019 7.636085 
453 453 1 1 2.702605 5.261743 5.595483 
454 454 1 1 6.602317 4.704499 2.117235 
455 455 1 1 4.311749 8.366940 3.755419 
456 456 1 1 3.765107 9.787395 5.774258 
457 457 1 1 2.930477 6.287988 0.310843 
458 458 1 1 5.878786 2.232292 4.207289 
459 459 1 1 6.292582 1.499189 7.083529 
460 460 1 1 3.273693 7.844437 0.199391 
461 461 1 1 2.939386 3.570038 2.763930 
462 462 1 1 3.750733 4.942958 8.163497 
463 463 1 1 2.920715 9.687200 9.399269 
464 464 1 1 6.848907 3.783282 3.216055 
465 465 1 1 5.070825 6.299210 1.644229 
466 466 1 1 6.245198 3.542702 9.600991 
467 467 1 1 6.043167 6.580704 2.728467 
468 468 1 1 5.179286 1.982239 0.374831 
469 469 1 1 3.723996 9.484499 6.496540 
470 470 1 1 4.235364 1.936283 4.128058 
471 471 1 1 6.904388 6.743224 8.430318 
472 472 1 1 3.252445 7.672568 1.173102 
473 473 1 1 4.264384 4.348161 8.872318 
474 474 1 1 4.286538 0.684564 8.296985 
475 475 1 1 7.136398 3.454052 0.605612 
476 476 1 1 5.951297 2.449708 8.967495 
477 477 1 1 5.222049 4.004309 0.739129 
478 478 1 1 3.178291 1.267997 7.721034 
479 479 1 1 6.858765 3.715097 9.373047 
480 480 1 1 7.189362 9.098974 5.290742 
481 481 1 1 2.990352 4.118807 4.213107 
482 482 1 1 6.200189 7.706862 1.210780 
483 483 1 1 5.556471 0.979906 6.958750 
484 484 1 1 5.849873 9.602548 5.628469 
485 485 1 1 6.818463 8.109708 9.324892 
486 486 1 1 6.488125 6.293221 8.650183 
487 487 1 1 6.238254 2.736107 6.457062 
488 488 1 1 5.027515 2.226839 9.403438 
489 489 1 1 7.282053 6.460061 7.423618 
490 490 1 1 3.784150 2.480812 1.635656 
491 491 1 1 5.087134 1.899141 1.706446 
492 492 1 1 2.684882 0.674843 7.064585 
493 493 1 1 6.934833 3.846752 8.290758 
494 494 1 1 5.514543 9.095165 9.440144 
495 495 1 1 5.659665 2.723694 8.064864 
496 496 1 1 3.612239 6.562725 4.176082 
497 497 1 1 3.746058 7.208320 7.444637 
498 498 1 1 6.797260 7.682694 9.795859 
499 499 1 1 4.847913 4.900967 9.395525 
500 500 1 1 5.456534 1.836406 3.874632 
501 501 2 -1 7.915286 6.056187 4.728648
502 502 2 -1 0.197338 4.541571 2.539878
503 503 2 -1 1.237729 4.997473 0.853272
504 504 2 -1 8.136941 3.309291 7.988228
505 505 2 -1 0.131265 2.093613 6.077457
506 506 2 -1 8.584158 7.181073 0.977472
507 507 2 -1 9.525453 9.780989 6.108776
508 508 2 -1 9.207941 5.429097 1.811652
509 509 2 -1 2.309929 4.994510 1.263308
510 510 2 -1 8.746372 1.442949 9.849624
511 511 2 -1 1.447461 3.013648 7.448928
512 512 2 -1 1.587987 8.523651 5.492194
513 513 2 -1 9.815233 6.873025 3.626257
514 514 2 -1 9.051835 6.930988 4.577201
515 515 2 -1 1.988207 8.812866 7.367938
516 516 2 -1 1.160753 0.329051 1.281820
517 517 2 -1 9.737077 3.910162 3.176769
518 518 2 -1 1.794361 7.669928 6.260418
519 519 2 -1 1.261400 0.595103 8.294724
520 520 2 -1 1.264209 2.237770 8.083454
521 521 2 -1 7.639929 4.009349 4.506583
522 522 2 -1 9.581752 9.013632 9.545659
523 523 2 -1 9.744977 8.752683 7.303441
524 524 2 -1 9.368907 4.196439 8.274488
525 525 2 -1 0.472695 8.678790 7.373356
526 526 2 -1 7.957334 3.478972 3.018148
527 527 2 -1 7.954996 7.004472 6.669369
528 528 2 -1 2.286288 5.824795 1.037643
529 529 2 -1 8.176720 9.302078 4.459102
530 530 2 -1 8.670737 4.926821 6.255942
531 531 2 -1 7.719182 0.087237 8.085738
532 532 2 -1 1.964254 5.382188 7.172030
533 533 2 -1 8.456291 2.752663 5.234367
534 534 2 -1 9.915940 4.362729 2.252926
535 535 2 -1 1.099304 2.070357 0.548483
536 536 2 -1 0.549023 8.854619 0.230314
537 537 2 -1 8.023729 1.962823 2.572318
538 538 2 -1 8.890838 2.658131 2.876206
539 539 2 -1 7.851910 9.168623 9.711487
540 540 2 -1 9.955590 5.881357 9.938977
541 541 2 -1 7.741659 7.399289 8.598272
542 542 2 -1 9.405330 2.962318 4.096290
543 543 2 -1 1.108319 2.934244 8.847566
544 544 2 -1 1.830034 0.501113 2.608591
545 545 2 -1 9.901553 2.540643 1.913385
546 546 2 -1 8.926706 5.817816 2.848639
547 547 2 -1 9.761834 5.763167 7.364547
548 548 2 -1 1.013986 6.558962 7.104796
549 549 2 -1 7.974185 7.607602 9.606026
550 550 2 -1 1.518897 9.950651 2.116538
551 551 2 -1 7.928988 7.458789 4.859477
552 552 2 -1 8.261193 6.676107 3.359103
553 553 2 -1 1.307136 5.211384 4.078922
554 554 2 -1 1.373483 0.260769 7.447540
555 555 2 -1 7.568493 1.239261 9.096569
556 556 2 -1 9.636885 7.130389 7.028784
557 557 2 -1 1.070304 5.911196 1.248602
558 558 2 -1 9.883212 2.317763 9.682008
559 559 2 -1 7.714476 1.919491 1.763980
560 560 2 -1 9.473197 1.406529 6.765276
561 561 2 -1 7.738574 0.193236 5.208694
562 562 2 -1 0.817973 7.824939 6.705957
563 563 2 -1 8.166495 6.568180 5.949742
564 564 2 -1 0.324974 6.510953 5.381796
565 565 2 -1 9.820880 0.857105 0.398567
566 566 2 -1 0.319018 5.964445 0.859493
567 567 2 -1 8.669947 8.639461 5.738468
568 568 2 -1 8.825265 8.634843 2.191141
569 569 2 -1 0.031531 4.340431 6.417914
570 570 2 -1 0.897295 9.518544 7.827786
571 571 2 -1 8.058178 0.572826 8.748547
572 572 2 -1 8.734698 8.534498 5.401425
573 573 2 -1 1.385956 1.777609 9.009178
574 574 2 -1 0.122159 7.990545 9.628734
575 575 2 -1 0.875351 9.878901 2.897488
576 576 2 -1 0.203815 3.291964 1.477739
577 577 2 -1 0.302950 6.939766 6.048205
578 578 2 -1 2.072358 3.983640 1.748616
579 579 2 -1 1.529285 1.280924 1.607487
580 580 2 -1 8.399951 2.083176 5.505886
581 581 2 -1 2.465249 2.048589 8.124258
582 582 2 -1 8.436417 4.971777 8.632470
583 583 2 -1 0.482931 7.355326 1.185076
584 584 2 -1 1.301026 3.170176 5.625926
585 585 2 -1 9.377305 7.094841 6.969647
586 586 2 -1 1.982302 3.779609 5.547390
587 587 2 -1 1.531763 4.484823 0.739252
588 588 2 -1 8.667315 6.881532 0.338769
589 589 2 -1 0.101569 2.282562 9.278688
590 590 2 -1 8.515186 4.632303 0.323015
591 591 2 -1 7.569850 6.858774 5.517706
592 592 2 -1 1.006405 0.344737 3.239831
593 593 2 -1 8.811142 1.623337 8.140214
594 594 2 -1 0.967304 6.485637 4.104601
595 595 2 -1 9.557615 6.315240 4.971174
596 596 2 -1 8.370237 6.491170 0.500739
597 597 2 -1 2.049579 6.162110 2.704575
598 598 2 -1 7.808255 3.523996 4.408960
599 599 2 -1 8.272037 4.623025 5.592612
600 600 2 -1 8.307236 3.533590 1.022396
601 601 2 -1 7.667480 1.695862 9.159622
602 602 2 -1 0.147318 3.562661 1.544450
603 603 2 -1 0.285194 4.528243 4.254427
604 604 2 -1 0.088765 7.067711 4.291896
605 605 2 -1 1.302645 9.236444 6.660190
606 606 2 -1 2.108422 6.152659 0.185712
607 607 2 -1 7.503174 6.176754 2.488856
608 608 2 -1 1.133133 7.480243 4.440754
609 609 2 -1 0.267646 2.311585 8.715476
610 610 2 -1 0.768217 2.322621 7.093930
611 611 2 -1 2.288551 9.800278 6.870866
612 612 2 -1 0.975644 3.025512 8.023310
613 613 2 -1 0.955795 5.854497 8.163132
614 614 2 -1 8.199434 6.294678 9.118425
615 615 2 -1 9.838178 3.832038 1.656899
616 616 2 -1 0.539891 2.705443 9.811191
617 617 2 -1 8.585385 6.243890 5.574816
618 618 2 -1 0.614862 8.886326 3.364918
619 619 2 -1 2.325655 9.891040 8.257588
620 620 2 -1 9.556718 6.001817 2.861411
621 621 2 -1 2.181446 2.593600 6.735358
622 622 2 -1 9.108669 9.974333 1.620643
623 623 2 -1 1.818477 9.721678 5.287933
624 624 2 -1 9.745169 2.992922 4.956602
625 625 2 -1 8.665830 9.582802 3.619709
626 626 2 -1 9.141220 7.844797 0.855594
627 627 2 -1 1.092200 6.941811 5.417277
628 628 2 -1 1.179722 9.197672 6.415599
629 629 2 -1 7.783583 6.257470 6.864063
630 630 2 -1 1.062578 4.659358 1.851219
631 631 2 -1 9.371401 8.513628 7.503043
632 632 2 -1 9.127356 6.429153 9.039397
633 633 2 -1 2.108865 9.378160 5.822776
634 634 2 -1 0.981690 4.634319 9.542881
635 635 2 -1 1.786789 8.656513 6.523125
636 636 2 -1 1.829230 6.314187 5.781609
637 637 2 -1 9.983535 8.093276 9.762609
638 638 2 -1 0.398942 8.892330 6.051256
639 639 2 -1 8.068508 9.194920 5.974398
640 640 2 -1 0.150156 7.297901 2.867876
641 641 2 -1 7.884203 6.388738 1.812229
642 642 2 -1 9.281043 9.615194 3.240096
643 643 2 -1 0.316690 2.394224 5.845600
644 644 2 -1 7.907938 1.356665 0.892961
645 645 2 -1 1.894431 5.212085 6.704079
646 646 2 -1 2.456793 7.475241 8.810270
647 647 2 -1 0.672066 8.713177 1.777195
648 648 2 -1 8.297722 6.914075 0.412801
649 649 2 -1 7.628093 5.764015 8.414115
650 650 2 -1 2.201296 1.286933 7.317153
651 651 2 -1 1.613156 2.427051 3.433311
652 652 2 -1 1.775965 7.039207 2.111120
653 653 2 -1 1.973527 9.493099 9.405102
654 654 2 -1 1.301513 8.459243 4.353816
655 655 2 -1 1.252564 8.659168 3.046400
656 656 2 -1 0.038526 0.455292 6.388109
657 657 2 -1 0.992823 2.184507 2.029797
658 658 2 -1 7.538799 7.922805 9.760285
659 659 2 -1 8.281907 4.616149 8.987543
660 660 2 -1 8.337392 2.389410 3.094934
661 661 2 -1 8.595887 4.096536 2.076515
662 662 2 -1 8.159978 0.256706 1.943508
663 663 2 -1 7.544613 7.300046 3.021000
664 664 2 -1 1.003132 5.752160 2.439179
665 665 2 -1 7.990769 5.032501 2.288332
666 666 2 -1 0.155679 6.649028 5.373722
667 667 2 -1 1.272384 3.739311 7.037854
668 668 2 -1 1.786116 0.713816 7.345788
669 669 2 -1 1.795765 0.893550 8.243554
670 670 2 -1 9.339899 4.903626 7.578310
671 671 2 -1 9.241076 9.043208 2.956364
672 672 2 -1 9.670480 3.999640 1.999295
673 673 2 -1 8.530988 0.224418 2.261942
674 674 2 -1 0.520758 6.384261 3.867287
675 675 2 -1 1.192336 8.694351 1.516524
676 676 2 -1 1.198810 2.534225 5.874368
677 677 2 -1 8.582685 7.824488 8.514234
678 678 2 -1 8.004418 1.132187 3.433945
679 679 2 -1 8.510211 2.878105 0.297108
680 680 2 -1 0.520710 0.939740 6.437044
681 681 2 -1 0.132382 0.254652 4.418801
682 682 2 -1 7.683450 0.654895 8.060537
683 683 2 -1 0.953497 8.749844 6.459340
684 684 2 -1 0.335333 6.909248 8.125409
685 685 2 -1 1.577798 5.360812 9.010825
686 686 2 -1 2.018501 9.182286 8.616762
687 687 2 -1 0.488209 8.745882 6.275768
688 688 2 -1 1.926694 8.792258 0.939854
689 689 2 -1 9.687381 6.198233 9.898825
690 690 2 -1 9.087508 8.848457 1.671239
691 691 2 -1 8.452436 1.030704 2.706084
692 692 2 -1 0.926893 7.125394 3.081008
693 693 2 -1 2.167330 1.301737 0.639034
694 694 2 -1 2.282050 6.845940 1.811248
695 695 2 -1 9.875144 9.623302 1.104910
696 696 2 -1 7.834920 5.968050 6.019087
697 697 2 -1 8.134159 7.091044 1.954347
698 698 2 -1 8.243504 1.027787 5.800868
699 699 2 -1 7.858419 7.039464 2.345381
700 700 2 -1 9.100557 9.702527 8.733139
701 701 2 -1 7.895820 3.902009 7.854755
702 702 2 -1 9.758068 2.144836 0.850194
703 703 2 -1 0.697206 5.635086 2.401874
704 704 2 -1 7.678716 2.759860 7.158422
705 705 2 -1 7.668065 7.594329 4.565765
706 706 2 -1 0.258794 3.312435 5.956457
707 707 2 -1 9.937518 0.107847 1.390713
708 708 2 -1 0.541348 5.395872 8.367495
709 709 2 -1 8.018808 1.497716 1.152607
710 710 2 -1 7.707042 6.019566 6.021925
711 711 2 -1 9.229495 9.850234 1.378457
712 712 2 -1 9.559648 7.081787 9.049925
713 713 2 -1 9.183458 1.500068 5.811067
714 714 2 -1 9.655631 6.328174 1.220763
715 715 2 -1 1.836775 0.809691 9.822638
716 716 2 -1 9.112541 2.114298 5.013369
717 717 2 -1 2.119536 5.445468 8.931618
718 718 2 -1 9.235752 3.606540 1.010546
719 719 2 -1 0.398308 4.337733 6.892275
720 720 2 -1 1.496658 4.617618 1.031635
721 721 2 -1 9.628513 7.847387 5.457045
722 722 2 -1 9.423778 7.604577 7.520697
723 723 2 -1 8.381092 3.186197 1.067727
724 724 2 -1 1.493480 7.138496 7.492817
725 725 2 -1 8.259090 2.518428 1.318299
726 726 2 -1 1.863838 0.355721 2.321992
727 727 2 -1 9.921279 7.385967 6.263861
728 728 2 -1 8.880224 4.690995 1.982684
729 729 2 -1 2.390311 6.680114 2.382100
730 730 2 -1 1.836591 2.480216 7.518008
731 731 2 -1 1.704041 0.177452 3.927273
732 732 2 -1 9.599251 8.057150 8.740688
733 733 2 -1 9.967592 5.662712 7.260825
734 734 2 -1 9.165034 5.556690 8.152321
735 735 2 -1 0.401246 7.110005 9.688925
736 736 2 -1 1.638983 2.765659 2.593217
737 737 2 -1 0.309244 6.867030 7.085754
738 738 2 -1 2.472062 0.192423 3.941794
739 739 2 -1 9.256132 8.624217 5.699147
740 740 2 -1 9.977555 3.182367 1.148439
741 741 2 -1 1.814019 5.306605 6.337494
742 742 2 -1 7.676966 6.344354 0.838706
743 743 2 -1 0.670661 4.592325 3.426405
744 744 2 -1 8.099971 8.161724 6.161357
745 745 2 -1 0.410206 2.052636 9.447115
746 746 2 -1 8.500731 1.632297 9.070400
747 747 2 -1 8.703115 2.761748 3.754495
748 748 2 -1 9.100952 3.820313 6.628542
749 749 2 -1 2.237225 2.958454 7.379022
750 750 2 -1 0.134427 2.592706 6.667852