arrrr

2 atoms
0 bonds
0 angles

1 atom types
0 bond types
0 angle types

0.000000 125.000000 xlo xhi
0.000000 125.000000 ylo yhi
0.000000 5.000000 zlo zhi

Masses

1 1.000000

Atoms

1 1 1  5.00000 48.278674 84.091104 0.000000
2 1 1  -5.00000 47.419708 86.020094 0.000000