arrrr

2 atoms
0 bonds
0 angles

1 atom types
0 bond types
0 angle types

0.000000 400.000000 xlo xhi
0.000000 400.000000 ylo yhi
0.000000 5.000000 zlo zhi

Masses

1 1.000000

Atoms

1 1 1  1.00000 190.0000000 200.000000 0.000000
2 1 1  -1.00000 210.000000 200.000000 0.000000
