ITEM: TIMESTEP
0
ITEM: NUMBER OF ATOMS
35588
ITEM: BOX BOUNDS pp pp pp
0.000000 14.696938
0.000000 14.696938
0.000000 165.340561
ITEM: ATOMS id type mol x y z q
1 1 1  3.572698 1.081241 83.577110 1.000000
2 1 1  2.848913 1.100835 82.557755 1.000000
3 1 1  5.035950 1.699676 84.556610 1.000000
4 1 1  4.793104 1.943378 84.666222 1.000000
5 1 1  5.926118 0.371591 84.979195 1.000000
6 1 1  4.899933 1.482107 85.781349 1.000000
7 1 1  4.355653 0.804457 85.908714 1.000000
8 1 1  5.134760 14.389664 85.167831 1.000000
9 1 1  5.391999 0.674730 85.861946 1.000000
10 1 1  3.490866 0.824833 84.645218 1.000000
11 1 1  3.551267 0.508737 85.605515 1.000000
12 1 1  5.730710 2.157387 85.242455 1.000000
13 1 1  8.303090 1.573498 85.423897 1.000000
14 1 1  5.818927 1.836341 85.754639 1.000000
15 1 1  6.377441 0.651391 85.662109 1.000000
16 1 1  6.361223 0.931991 84.837883 1.000000
17 1 1  6.921065 1.021091 85.282707 1.000000
18 1 1  8.455350 1.007569 84.653130 1.000000
19 1 1  8.086353 1.394940 83.777390 1.000000
20 1 1  8.023400 1.307982 83.449387 1.000000
21 1 1  9.591699 13.813593 83.296608 1.000000
22 1 1  10.435089 13.922596 84.401772 1.000000
23 1 1  9.350575 14.322866 85.272827 1.000000
24 1 1  8.548714 13.519109 84.986610 1.000000
25 1 1  7.853992 13.117560 86.196693 1.000000
26 1 1  7.946105 10.927468 87.613983 1.000000
27 1 1  7.230718 11.181961 87.724037 1.000000
28 1 1  6.611949 11.224678 89.277405 1.000000
29 1 1  7.432168 10.368861 89.899597 1.000000
30 1 1  5.993965 9.312493 90.091248 1.000000
31 1 1  6.786530 9.408467 90.263000 1.000000
32 1 1  6.097715 9.825185 91.045631 1.000000
33 1 1  5.832040 9.624399 91.808945 1.000000
34 1 1  2.446812 8.386555 89.853264 1.000000
35 1 1  1.587322 9.193465 88.549881 1.000000
36 1 1  2.113208 9.374271 87.442757 1.000000
37 1 1  3.140231 9.337327 86.127251 1.000000
38 1 1  4.738441 9.034669 85.637787 1.000000
39 1 1  6.537481 8.991044 86.385696 1.000000
40 1 1  7.327803 9.434667 87.640686 1.000000
41 1 1  6.540406 9.040709 87.081985 1.000000
42 1 1  5.901000 9.499161 86.371231 1.000000
43 1 1  5.937038 9.478575 83.796173 1.000000
44 1 1  5.866604 8.720090 83.385666 1.000000
45 1 1  5.334405 10.658637 83.249573 1.000000
46 1 1  6.423906 11.440297 83.669357 1.000000
47 1 1  6.860153 11.950550 82.515732 1.000000
48 1 1  6.274702 12.798092 80.728287 1.000000
49 1 1  6.625125 14.294366 81.539421 1.000000
50 1 1  5.745370 0.479781 79.910545 1.000000
51 1 1  4.857152 0.692014 80.704323 1.000000
52 1 1  4.575015 0.656185 80.051453 1.000000
53 1 1  4.287828 13.414468 78.075249 1.000000
54 1 1  3.630288 13.410504 77.776543 1.000000
55 1 1  4.321732 13.561660 77.867897 1.000000
56 1 1  4.986796 13.819123 78.405708 1.000000
57 1 1  5.454810 14.323129 78.873337 1.000000
58 1 1  5.396544 0.806527 78.143044 1.000000
59 1 1  5.242703 14.572917 77.645638 1.000000
60 1 1  5.853803 0.345728 78.164520 1.000000
61 1 1  8.050878 0.964998 78.463875 1.000000
62 1 1  6.874495 0.858026 79.337341 1.000000
63 1 1  5.894084 1.602942 77.325386 1.000000
64 1 1  5.431497 1.587841 77.306305 1.000000
65 1 1  4.404794 2.932094 76.101105 1.000000
66 1 1  4.139006 3.672229 75.620934 1.000000
67 1 1  2.332240 3.397706 76.330032 1.000000
68 1 1  2.243628 4.627309 76.841507 1.000000
69 1 1  2.442936 4.636385 75.221985 1.000000
70 1 1  14.655728 5.148389 75.171257 1.000000
71 1 1  2.199013 6.258599 73.508400 1.000000
72 1 1  4.017706 3.483585 70.700630 1.000000
73 1 1  3.934916 5.505530 71.018402 1.000000
74 1 1  2.945808 6.555470 70.902336 1.000000
75 1 1  3.065026 6.046303 70.697189 1.000000
76 1 1  3.677766 5.314314 69.455070 1.000000
77 1 1  3.505707 7.783280 68.285416 1.000000
78 1 1  3.635691 7.964011 69.732208 1.000000
79 1 1  4.141332 7.802435 69.362915 1.000000
80 1 1  3.125968 8.740324 69.171150 1.000000
81 1 1  2.253794 8.085633 70.485497 1.000000
82 1 1  2.971528 9.895341 70.783760 1.000000
83 1 2  12.811907 10.163830 2.086888 1.000000
84 1 2  12.912706 10.921230 1.177076 1.000000
85 1 2  12.669818 11.583882 0.745990 1.000000
86 1 2  0.145594 11.184975 0.664106 1.000000
87 1 2  0.359660 11.374774 164.783661 1.000000
88 1 2  0.733520 10.672853 165.239029 1.000000
89 1 2  2.024640 12.362710 164.494797 1.000000
90 1 2  0.829360 12.306663 0.769519 1.000000
91 1 2  0.464069 13.214639 164.361160 1.000000
92 1 2  14.257167 12.658268 164.754181 1.000000
93 1 2  0.277153 12.273518 0.062618 1.000000
94 1 2  14.239083 12.316143 1.376584 1.000000
95 1 2  13.491377 12.394157 2.353457 1.000000
96 1 2  12.891387 13.973226 2.493243 1.000000
97 1 2  12.674656 0.330345 2.296984 1.000000
98 1 2  12.854283 14.411848 2.298190 1.000000
99 1 2  12.513018 13.423004 4.173119 1.000000
100 1 2  11.098709 13.030883 4.926077 1.000000
101 1 2  12.616705 12.557724 3.016829 1.000000
102 1 2  12.477749 11.959189 1.559002 1.000000
103 1 2  13.334284 12.016528 1.286576 1.000000
104 1 2  13.224576 10.590393 1.543411 1.000000
105 1 2  14.069946 11.930107 0.535492 1.000000
106 1 2  13.431719 11.612270 0.300137 1.000000
107 1 2  13.803396 11.304179 164.162476 1.000000
108 1 2  13.628993 11.566469 163.008438 1.000000
109 1 2  13.172683 12.293560 164.957733 1.000000
110 1 2  12.722739 13.397604 1.517715 1.000000
111 1 2  12.550853 0.330474 2.326067 1.000000
112 1 2  14.403429 14.060792 1.082037 1.000000
113 1 2  12.846968 13.325633 0.298732 1.000000
114 1 2  13.075420 12.727049 3.409891 1.000000
115 1 2  14.082928 13.565782 2.814674 1.000000
116 1 2  1.114224 13.850830 2.837836 1.000000
117 1 2  1.228179 0.500694 3.694664 1.000000
118 1 2  2.585420 3.554956 3.661801 1.000000
119 1 2  4.921834 5.071029 4.560252 1.000000
120 1 2  5.894967 5.964636 4.256614 1.000000
121 1 2  5.611295 5.545698 4.049648 1.000000
122 1 2  6.396456 6.606632 4.284216 1.000000
123 1 2  5.737148 7.216293 4.925245 1.000000
124 1 2  7.047895 6.918141 3.868648 1.000000
125 1 2  6.350499 7.178781 5.365988 1.000000
126 1 2  4.746324 7.539862 6.798811 1.000000
127 1 2  5.939451 8.580209 5.856892 1.000000
128 1 2  6.793293 9.338652 5.480816 1.000000
129 1 2  7.243709 8.736449 4.316021 1.000000
130 1 2  7.521678 8.494382 4.902816 1.000000
131 1 2  7.496453 8.028132 5.856759 1.000000
132 1 2  8.421886 8.795654 7.115330 1.000000
133 1 2  8.719741 8.970145 7.256160 1.000000
134 1 2  8.180436 7.481369 7.602188 1.000000
135 1 2  10.534648 7.482662 6.747684 1.000000
136 1 2  10.372985 7.540741 6.675411 1.000000
137 1 2  10.461416 6.561772 7.101569 1.000000
138 1 2  11.907692 8.057881 7.894983 1.000000
139 1 2  11.923358 8.690320 9.096733 1.000000
140 1 2  11.573967 9.196057 8.545869 1.000000
141 1 2  11.709419 7.373934 8.247540 1.000000
142 1 2  12.548165 9.378332 8.347291 1.000000
143 1 2  12.061631 8.984399 7.939304 1.000000
144 1 2  11.339073 8.566841 7.485186 1.000000
145 1 2  9.930662 8.977866 8.994405 1.000000
146 1 2  9.648334 8.820223 9.639949 1.000000
147 1 2  8.269782 8.804086 10.691014 1.000000
148 1 2  10.314931 8.300876 11.521986 1.000000
149 1 2  8.455777 8.700558 11.424270 1.000000
150 1 2  8.211990 10.638963 11.284023 1.000000
151 1 2  7.857280 9.871548 12.001830 1.000000
152 1 2  8.827567 8.798351 11.474000 1.000000
153 1 2  8.386756 10.238967 11.020342 1.000000
154 1 2  7.030816 9.645863 11.324821 1.000000
155 1 2  8.041571 9.234394 13.870983 1.000000
156 1 2  7.161137 8.273849 12.218065 1.000000
157 1 2  7.208793 8.233432 11.844098 1.000000
158 1 2  8.448270 9.173091 12.085524 1.000000
159 1 2  8.486601 10.129702 13.173338 1.000000
160 1 2  8.630460 8.147625 13.055567 1.000000
161 1 2  8.263771 8.621227 12.266755 1.000000
162 1 2  9.427135 8.268021 12.011991 1.000000
163 1 2  10.751332 7.291455 11.853319 1.000000
164 1 2  11.146602 6.794994 12.493395 1.000000
165 1 3  4.960759 7.374867 42.879887 1.000000
166 1 3  5.939347 6.757082 43.019703 1.000000
167 1 3  4.956770 6.385755 42.114307 1.000000
168 1 3  5.050555 6.387600 42.798782 1.000000
169 1 3  6.597620 5.472386 40.903252 1.000000
170 1 3  6.502085 6.157816 40.903885 1.000000
171 1 3  5.820729 6.538144 41.230331 1.000000
172 1 3  5.448079 8.045196 41.570374 1.000000
173 1 3  5.529325 7.859826 42.656933 1.000000
174 1 3  5.083046 8.502777 41.177162 1.000000
175 1 3  5.463536 11.181307 40.088490 1.000000
176 1 3  6.292400 10.623733 40.811020 1.000000
177 1 3  5.814813 10.269485 41.422569 1.000000
178 1 3  6.525194 8.810040 41.233761 1.000000
179 1 3  7.347620 9.060683 42.707176 1.000000
180 1 3  8.375540 8.406912 41.365444 1.000000
181 1 3  7.534414 9.564313 42.231136 1.000000
182 1 3  7.368821 10.209029 40.911060 1.000000
183 1 3  8.887544 10.712861 41.119240 1.000000
184 1 3  10.120040 10.734125 41.546207 1.000000
185 1 3  10.264800 11.390534 42.121853 1.000000
186 1 3  9.150097 10.347360 43.131779 1.000000
187 1 3  9.022175 10.579997 42.746666 1.000000
188 1 3  9.655455 9.172053 41.925495 1.000000
189 1 3  10.410538 9.715975 42.292706 1.000000
190 1 3  11.475937 9.203124 42.087650 1.000000
191 1 3  11.088579 7.752156 40.762260 1.000000
192 1 3  8.447799 8.675239 40.375751 1.000000
193 1 3  8.865292 7.508825 41.094757 1.000000
194 1 3  7.578688 6.770478 41.685970 1.000000
195 1 3  7.260950 6.162544 42.690907 1.000000
196 1 3  7.983761 6.116271 43.210884 1.000000
197 1 3  8.787854 6.462918 44.263485 1.000000
198 1 3  7.906371 5.580318 43.250557 1.000000
199 1 3  9.027663 4.265389 43.963589 1.000000
200 1 3  8.805528 4.431697 43.976078 1.000000
201 1 3  8.807698 3.018799 42.959469 1.000000
202 1 3  10.339135 3.691640 42.512886 1.000000
203 1 3  11.410656 3.412854 42.951939 1.000000
204 1 3  13.008841 5.098732 43.251064 1.000000
205 1 3  12.375250 5.208015 43.427185 1.000000
206 1 3  12.954479 5.120311 43.754501 1.000000
207 1 3  12.268995 6.035517 43.790806 1.000000
208 1 3  11.588194 7.093779 42.950188 1.000000
209 1 3  11.618157 7.065176 42.947502 1.000000
210 1 3  12.755590 6.566621 43.031616 1.000000
211 1 3  12.892991 5.390539 42.052998 1.000000
212 1 3  13.906686 3.801739 41.643253 1.000000
213 1 3  12.550959 3.142334 41.779846 1.000000
214 1 3  10.519074 1.429147 41.774281 1.000000
215 1 3  11.483124 2.125044 42.404346 1.000000
216 1 3  11.823641 1.293192 43.117634 1.000000
217 1 3  11.765654 0.763366 44.250591 1.000000
218 1 3  11.573466 1.594078 44.245388 1.000000
219 1 3  12.531921 1.731804 43.793201 1.000000
220 1 3  13.373584 2.371606 43.339413 1.000000
221 1 3  12.924472 2.488440 42.187164 1.000000
222 1 3  13.162426 0.787853 40.798721 1.000000
223 1 3  13.930322 1.019313 40.481312 1.000000
224 1 3  13.654315 0.719056 42.194012 1.000000
225 1 3  12.891697 1.603045 41.135006 1.000000
226 1 3  13.287378 2.454100 41.182983 1.000000
227 1 3  14.606456 2.971372 41.413639 1.000000
228 1 3  2.516767 1.805608 41.530540 1.000000
229 1 3  2.044636 1.415352 41.483200 1.000000
230 1 3  1.852419 1.151363 41.519424 1.000000
231 1 3  1.785716 0.956038 41.463257 1.000000
232 1 3  1.767733 0.340091 40.582451 1.000000
233 1 3  14.630264 2.231853 42.148579 1.000000
234 1 3  14.421170 1.633919 40.087208 1.000000
235 1 3  1.037258 1.300829 40.120544 1.000000
236 1 3  0.725015 0.676374 40.208714 1.000000
237 1 3  0.641476 2.578559 40.370979 1.000000
238 1 3  1.480250 4.196028 40.192654 1.000000
239 1 3  2.756265 5.252026 39.850704 1.000000
240 1 3  2.211121 3.465652 39.864025 1.000000
241 1 3  1.757420 1.949352 39.720432 1.000000
242 1 3  1.213277 3.311814 39.534855 1.000000
243 1 3  1.731259 4.268931 40.340527 1.000000
244 1 3  1.772631 3.919647 40.309620 1.000000
245 1 3  2.403192 4.094905 40.469990 1.000000
246 1 3  1.772056 3.843203 40.987392 1.000000
247 1 4  0.005820 11.522853 51.272606 1.000000
248 1 4  12.967587 12.641602 51.152809 1.000000
249 1 4  13.669344 11.280947 52.379868 1.000000
250 1 4  13.153554 12.007670 52.458435 1.000000
251 1 4  13.070803 12.629043 52.017357 1.000000
252 1 4  12.873838 14.617141 53.779491 1.000000
253 1 4  12.521578 0.713925 52.832111 1.000000
254 1 4  10.846975 14.625320 52.523499 1.000000
255 1 4  10.416759 12.676087 53.901501 1.000000
256 1 4  11.873256 12.332405 52.487019 1.000000
257 1 4  13.139422 12.259207 52.412746 1.000000
258 1 4  14.063429 12.376888 51.863007 1.000000
259 1 4  14.211115 11.348730 52.448833 1.000000
260 1 4  13.963526 9.635447 53.065594 1.000000
261 1 4  12.975700 10.994706 53.986423 1.000000
262 1 4  14.175999 11.926904 53.368385 1.000000
263 1 4  14.292561 9.592605 52.849339 1.000000
264 1 4  14.392768 7.724336 52.152691 1.000000
265 1 4  13.691575 8.233976 50.735634 1.000000
266 1 4  14.151776 8.823498 51.044598 1.000000
267 1 4  1.300927 9.458526 48.944187 1.000000
268 1 4  0.864390 9.711158 48.479332 1.000000
269 1 4  1.185402 9.760933 49.615028 1.000000
270 1 4  3.241276 10.695381 49.884678 1.000000
271 1 4  4.245716 11.852671 50.110474 1.000000
272 1 4  5.681380 13.102698 50.455101 1.000000
273 1 4  5.235100 13.625921 49.836269 1.000000
274 1 4  4.793330 0.070818 51.607044 1.000000
275 1 4  8.354788 13.469379 52.397938 1.000000
276 1 4  7.005842 0.584733 53.263409 1.000000
277 1 4  5.708277 0.459763 53.181820 1.000000
278 1 4  4.959188 0.704727 53.175583 1.000000
279 1 4  4.407885 14.506907 52.272560 1.000000
280 1 4  2.992021 0.609796 52.242203 1.000000
281 1 4  2.713601 13.493949 51.945305 1.000000
282 1 4  4.398042 13.346299 51.099373 1.000000
283 1 4  4.538973 13.379894 50.786613 1.000000
284 1 4  8.575852 0.097357 51.243690 1.000000
285 1 4  8.059669 14.017020 51.775562 1.000000
286 1 4  7.651627 14.344266 51.670792 1.000000
287 1 4  7.383639 14.606497 53.921707 1.000000
288 1 4  8.417882 0.098646 53.178791 1.000000
289 1 4  9.418400 14.547165 53.411644 1.000000
290 1 4  8.740671 0.429463 53.233288 1.000000
291 1 4  8.409728 0.095756 53.144627 1.000000
292 1 4  8.522278 1.127801 54.836800 1.000000
293 1 4  8.964117 1.351535 55.499626 1.000000
294 1 4  8.937394 2.183037 54.114044 1.000000
295 1 4  9.504308 3.865763 53.202419 1.000000
296 1 4  7.780281 3.739317 54.291481 1.000000
297 1 4  8.928186 3.830038 54.245586 1.000000
298 1 4  10.017298 3.031908 54.497559 1.000000
299 1 4  10.208757 2.691275 54.851540 1.000000
300 1 4  8.802177 2.398174 54.992573 1.000000
301 1 4  9.178740 3.343248 56.425541 1.000000
302 1 4  9.771838 3.788360 57.197384 1.000000
303 1 4  9.170915 2.300022 57.904194 1.000000
304 1 4  10.574235 2.281337 58.223591 1.000000
305 1 4  10.095490 1.921075 58.425072 1.000000
306 1 4  8.919664 1.548085 56.415012 1.000000
307 1 4  8.506855 3.053749 55.989349 1.000000
308 1 4  7.903482 2.973571 57.032444 1.000000
309 1 4  7.586757 5.016970 55.674786 1.000000
310 1 4  7.156356 4.510647 55.156986 1.000000
311 1 4  9.572105 6.258227 53.997066 1.000000
312 1 4  9.000955 7.282072 53.834774 1.000000
313 1 4  9.049701 8.200919 53.299938 1.000000
314 1 4  10.006500 7.886397 52.042049 1.000000
315 1 4  9.669525 8.822349 52.428280 1.000000
316 1 4  10.417678 9.394137 52.619488 1.000000
317 1 4  9.034634 8.170775 55.100056 1.000000
318 1 4  9.954947 8.023587 54.849895 1.000000
319 1 4  8.972400 9.147023 54.370857 1.000000
320 1 4  9.403868 8.428291 54.415390 1.000000
321 1 4  9.056574 10.158763 54.858177 1.000000
322 1 4  10.240594 8.939445 55.023369 1.000000
323 1 4  9.520128 9.172499 55.773121 1.000000
324 1 4  10.175011 10.677494 54.801933 1.000000
325 1 4  9.271153 11.733344 55.818108 1.000000
326 1 4  10.706501 12.186848 56.576054 1.000000
327 1 4  11.814383 11.756624 56.904282 1.000000
328 1 4  12.778722 10.870865 56.181599 1.000000
329 1 5  1.828003 7.931242 76.560814 1.000000
330 1 5  1.364987 6.861845 75.658684 1.000000
331 1 5  3.845626 7.270083 75.545418 1.000000
332 1 5  3.443360 7.795819 75.997993 1.000000
333 1 5  3.673302 9.219825 77.173607 1.000000
334 1 5  4.065831 8.697133 77.935730 1.000000
335 1 5  4.301757 9.539360 78.040077 1.000000
336 1 5  4.449644 9.292096 78.939194 1.000000
337 1 5  3.585311 8.801206 79.602272 1.000000
338 1 5  3.738217 8.341099 80.208626 1.000000
339 1 5  0.804029 8.484962 81.847694 1.000000
340 1 5  2.463385 9.226997 81.679184 1.000000
341 1 5  1.892030 8.318062 81.429855 1.000000
342 1 5  1.977620 7.576401 80.139488 1.000000
343 1 5  1.100491 9.161410 81.263237 1.000000
344 1 5  0.662865 7.446278 81.171524 1.000000
345 1 5  14.657869 7.911443 83.906204 1.000000
346 1 5  14.377360 6.545808 85.232697 1.000000
347 1 5  14.179245 7.969611 84.788208 1.000000
348 1 5  0.171548 7.824507 84.282806 1.000000
349 1 5  0.031136 6.357480 84.361710 1.000000
350 1 5  0.320365 5.992215 84.455849 1.000000
351 1 5  0.679573 6.694767 84.599045 1.000000
352 1 5  0.600057 5.669889 86.024300 1.000000
353 1 5  0.145141 6.130783 85.983063 1.000000
354 1 5  0.814311 7.642095 85.660011 1.000000
355 1 5  14.248273 8.756885 86.212677 1.000000
356 1 5  12.545096 9.467652 86.017448 1.000000
357 1 5  11.651531 9.189101 86.499985 1.000000
358 1 5  12.083967 7.952359 85.941330 1.000000
359 1 5  12.995696 6.390858 88.093468 1.000000
360 1 5  13.495118 7.059759 88.134079 1.000000
361 1 5  12.941537 6.152699 87.565216 1.000000
362 1 5  13.158638 5.027166 88.084312 1.000000
363 1 5  12.197360 2.642870 88.456177 1.000000
364 1 5  0.827825 4.421582 88.308716 1.000000
365 1 5  1.941060 2.947159 87.672966 1.000000
366 1 5  4.040682 2.129745 87.473824 1.000000
367 1 5  3.551616 1.865829 84.919395 1.000000
368 1 5  3.627708 1.491396 84.816147 1.000000
369 1 5  4.689362 1.599924 84.181236 1.000000
370 1 5  5.366842 0.889554 83.678970 1.000000
371 1 5  6.272944 0.002123 83.787888 1.000000
372 1 5  6.294655 14.468044 85.959183 1.000000
373 1 5  5.645670 14.600821 84.881401 1.000000
374 1 5  5.749718 1.205538 85.493340 1.000000
375 1 5  7.379648 1.310521 85.585411 1.000000
376 1 5  8.828365 1.111885 85.547394 1.000000
377 1 5  8.566487 0.701476 83.995613 1.000000
378 1 5  8.997013 14.364945 83.994522 1.000000
379 1 5  8.409356 13.157876 83.248596 1.000000
380 1 5  8.385025 14.304928 84.334755 1.000000
381 1 5  9.556123 14.657512 84.156647 1.000000
382 1 5  8.175712 13.421011 82.373718 1.000000
383 1 5  7.625729 12.410481 81.558578 1.000000
384 1 5  7.960303 11.986030 82.117584 1.000000
385 1 5  7.533589 13.329003 82.250687 1.000000
386 1 5  7.334656 11.993025 82.766441 1.000000
387 1 5  7.345807 12.982404 81.462585 1.000000
388 1 5  7.601372 12.193352 82.000839 1.000000
389 1 5  9.354699 14.691974 80.760742 1.000000
390 1 5  10.461725 13.870062 80.917931 1.000000
391 1 5  7.671560 0.093242 80.182648 1.000000
392 1 5  7.585867 1.464377 81.930191 1.000000
393 1 5  8.416294 0.756597 82.231560 1.000000
394 1 5  8.533170 0.032544 83.165672 1.000000
395 1 5  9.775180 0.914541 84.004044 1.000000
396 1 5  8.558067 1.227186 84.373756 1.000000
397 1 5  8.898843 0.854156 85.273270 1.000000
398 1 5  9.958633 0.562394 85.264725 1.000000
399 1 5  9.743634 14.547146 84.526115 1.000000
400 1 5  9.317944 0.501291 85.448265 1.000000
401 1 5  9.671801 0.423017 85.904549 1.000000
402 1 5  10.722282 14.417837 85.917389 1.000000
403 1 5  11.156279 14.627327 86.753120 1.000000
404 1 5  10.906717 14.281245 86.857048 1.000000
405 1 5  11.512304 13.272490 84.901726 1.000000
406 1 5  8.582540 0.067791 86.442764 1.000000
407 1 5  7.895277 14.379917 88.157806 1.000000
408 1 5  7.206202 12.418608 89.478683 1.000000
409 1 5  7.518794 11.880576 88.738747 1.000000
410 1 5  6.108861 11.122737 89.388870 1.000000
411 1 6  7.661230 5.965900 71.979103 1.000000
412 1 6  8.521622 6.474142 72.973625 1.000000
413 1 6  8.914663 6.474524 72.817886 1.000000
414 1 6  9.912738 4.465493 74.834198 1.000000
415 1 6  8.687082 3.716684 75.225632 1.000000
416 1 6  7.502478 4.141673 76.898911 1.000000
417 1 6  7.348599 3.757879 76.717918 1.000000
418 1 6  7.397029 4.310381 76.535622 1.000000
419 1 6  8.616048 4.326733 77.245026 1.000000
420 1 6  10.377799 7.200950 77.020271 1.000000
421 1 6  10.782217 6.198328 76.049385 1.000000
422 1 6  10.884722 5.139446 76.316238 1.000000
423 1 6  11.042692 5.335134 75.498863 1.000000
424 1 6  11.401522 6.426484 76.823662 1.000000
425 1 6  10.513347 5.561363 75.756798 1.000000
426 1 6  10.987266 5.118512 75.916611 1.000000
427 1 6  11.500206 5.262938 75.797554 1.000000
428 1 6  11.985338 4.140219 75.527313 1.000000
429 1 6  12.547877 4.037234 75.710350 1.000000
430 1 6  11.744382 5.149280 74.596252 1.000000
431 1 6  12.249921 3.902291 74.143600 1.000000
432 1 6  12.956654 4.108058 75.555206 1.000000
433 1 6  13.793020 3.375809 76.374840 1.000000
434 1 6  0.295694 3.649847 75.026726 1.000000
435 1 6  0.605332 4.824568 74.628189 1.000000
436 1 6  0.108298 5.352159 75.084663 1.000000
437 1 6  13.604646 7.011626 76.157013 1.000000
438 1 6  0.947476 6.926227 76.722794 1.000000
439 1 6  0.904167 6.226404 74.589500 1.000000
440 1 6  0.814178 7.157647 74.853699 1.000000
441 1 6  0.864983 6.872174 75.363968 1.000000
442 1 6  0.912582 8.077564 75.708138 1.000000
443 1 6  0.845180 7.118481 74.668610 1.000000
444 1 6  0.059598 5.275115 75.240761 1.000000
445 1 6  1.136242 2.974379 74.782417 1.000000
446 1 6  0.951187 3.890157 76.198257 1.000000
447 1 6  0.401843 3.765187 76.155296 1.000000
448 1 6  0.682987 3.510610 75.213097 1.000000
449 1 6  0.414946 2.300945 76.623604 1.000000
450 1 6  0.374267 3.357025 76.424469 1.000000
451 1 6  14.370164 2.839881 75.933067 1.000000
452 1 6  12.989172 4.430656 74.463440 1.000000
453 1 6  13.109291 4.635302 75.380852 1.000000
454 1 6  13.800759 4.169901 76.524773 1.000000
455 1 6  12.554046 4.732286 76.707603 1.000000
456 1 6  12.666647 4.583387 75.929382 1.000000
457 1 6  13.297338 5.192299 74.851044 1.000000
458 1 6  13.450374 4.948441 74.066093 1.000000
459 1 6  13.792395 5.109150 76.557137 1.000000
460 1 6  13.507273 3.773500 77.011368 1.000000
461 1 6  12.114010 5.918663 77.857697 1.000000
462 1 6  10.290061 5.683675 79.244293 1.000000
463 1 6  9.807988 5.440841 79.052498 1.000000
464 1 6  10.570436 4.617697 79.985474 1.000000
465 1 6  11.000222 4.327571 79.088692 1.000000
466 1 6  10.895970 5.724682 80.391602 1.000000
467 1 6  11.498940 5.890131 81.245346 1.000000
468 1 6  11.807679 6.689895 82.388687 1.000000
469 1 6  10.799627 6.257722 81.855606 1.000000
470 1 6  10.800167 6.747316 82.215210 1.000000
471 1 6  9.948775 7.540744 83.862450 1.000000
472 1 6  10.340923 8.379867 84.692406 1.000000
473 1 6  11.858949 8.993975 83.930222 1.000000
474 1 6  10.206570 9.778059 82.908501 1.000000
475 1 6  9.917537 10.400635 82.766388 1.000000
476 1 6  9.993407 9.575560 82.374718 1.000000
477 1 6  9.452082 8.278486 80.481003 1.000000
478 1 6  10.558218 6.972332 81.012619 1.000000
479 1 6  11.270319 5.135069 79.749329 1.000000
480 1 6  10.830148 5.081464 83.152000 1.000000
481 1 6  8.713366 5.800725 82.899185 1.000000
482 1 6  9.819271 6.208588 81.691162 1.000000
483 1 6  9.083017 6.364558 82.402794 1.000000
484 1 6  9.789906 7.820392 82.811279 1.000000
485 1 6  9.777729 6.813681 82.425896 1.000000
486 1 6  8.498294 8.715198 83.833252 1.000000
487 1 6  7.832686 9.402099 83.428116 1.000000
488 1 6  8.205812 9.162273 85.107582 1.000000
489 1 6  9.587014 7.937790 84.780464 1.000000
490 1 6  11.648975 8.240861 83.303520 1.000000
491 1 6  9.758949 6.376901 82.144859 1.000000
492 1 6  8.976582 6.621233 83.350967 1.000000
493 1 7  4.392191 7.075672 32.688316 1.000000
494 1 7  5.209983 6.343186 33.219193 1.000000
495 1 7  5.461162 6.012410 34.409374 1.000000
496 1 7  4.718627 5.527411 33.742386 1.000000
497 1 7  5.137877 3.808769 32.953690 1.000000
498 1 7  3.719823 3.220477 32.258301 1.000000
499 1 7  3.948929 3.831013 32.315269 1.000000
500 1 7  4.089229 2.970650 33.389500 1.000000
501 1 7  3.889799 2.855417 32.841583 1.000000
502 1 7  4.220119 2.479902 32.857075 1.000000
503 1 7  5.133391 3.037255 34.532333 1.000000
504 1 7  4.758148 2.127958 35.599201 1.000000
505 1 7  3.787943 2.431760 35.598091 1.000000
506 1 7  4.328620 2.522984 34.557434 1.000000
507 1 7  4.565589 1.728083 35.020470 1.000000
508 1 7  3.281613 1.350646 33.293907 1.000000
509 1 7  3.442398 1.539825 34.154507 1.000000
510 1 7  1.975019 2.543289 34.379147 1.000000
511 1 7  1.431958 2.748786 34.283325 1.000000
512 1 7  1.028463 0.876697 34.895203 1.000000
513 1 7  1.774018 14.162270 34.892227 1.000000
514 1 7  1.375476 13.474351 35.392426 1.000000
515 1 7  1.377840 11.667256 34.568531 1.000000
516 1 7  13.854183 10.786961 34.168793 1.000000
517 1 7  11.674660 11.244498 34.831818 1.000000
518 1 7  13.164151 11.517265 33.394722 1.000000
519 1 7  12.677657 11.989794 33.354946 1.000000
520 1 7  12.402147 11.680189 32.748703 1.000000
521 1 7  11.513858 11.399492 31.894442 1.000000
522 1 7  11.698364 12.643392 30.081507 1.000000
523 1 7  11.514170 13.138362 30.837191 1.000000
524 1 7  13.170315 13.687496 30.901508 1.000000
525 1 7  11.357610 13.392505 31.208664 1.000000
526 1 7  10.949448 12.545958 31.673964 1.000000
527 1 7  11.058118 14.525683 31.754934 1.000000
528 1 7  9.544198 0.746720 31.361174 1.000000
529 1 7  9.824216 14.433350 33.514751 1.000000
530 1 7  9.992512 13.744073 34.035355 1.000000
531 1 7  9.564134 13.416151 34.460735 1.000000
532 1 7  10.089610 13.671033 34.430252 1.000000
533 1 7  11.059138 13.261535 34.683586 1.000000
534 1 7  11.121901 13.969020 34.600483 1.000000
535 1 7  8.810179 12.170366 34.127262 1.000000
536 1 7  7.547712 12.035023 32.966522 1.000000
537 1 7  9.432654 10.612284 32.766914 1.000000
538 1 7  9.765180 12.572273 31.338829 1.000000
539 1 7  7.783104 12.378863 31.152102 1.000000
540 1 7  6.916529 12.504367 33.029430 1.000000
541 1 7  8.772223 13.619409 33.218666 1.000000
542 1 7  8.522943 12.315514 34.391388 1.000000
543 1 7  7.224886 11.942331 33.690166 1.000000
544 1 7  6.171776 12.666282 31.180052 1.000000
545 1 7  5.203230 13.499237 32.287437 1.000000
546 1 7  5.496041 11.587897 30.484076 1.000000
547 1 7  5.868758 11.690364 30.393768 1.000000
548 1 7  5.439101 11.363080 30.114101 1.000000
549 1 7  6.488803 13.797896 31.190767 1.000000
550 1 7  5.039821 13.672446 32.183899 1.000000
551 1 7  4.501726 13.060342 32.621292 1.000000
552 1 7  3.447983 13.918561 31.610176 1.000000
553 1 7  3.982699 0.281879 31.035360 1.000000
554 1 7  3.462915 1.680705 32.758427 1.000000
555 1 7  2.788972 0.922148 34.869587 1.000000
556 1 7  1.346683 0.503189 34.049011 1.000000
557 1 7  1.926454 0.496491 34.894142 1.000000
558 1 7  2.257342 1.545251 34.415958 1.000000
559 1 7  2.316149 1.508729 32.967953 1.000000
560 1 7  1.783638 1.714009 32.631516 1.000000
561 1 7  1.700334 0.818193 32.889698 1.000000
562 1 7  14.234218 1.169012 32.596691 1.000000
563 1 7  12.913656 1.439619 31.008640 1.000000
564 1 7  11.756353 2.419931 31.184179 1.000000
565 1 7  11.639865 2.270417 32.130871 1.000000
566 1 7  11.798800 2.864471 31.968731 1.000000
567 1 7  12.046493 5.226748 35.470844 1.000000
568 1 7  14.187141 4.513735 35.826466 1.000000
569 1 7  13.227091 2.200671 35.928101 1.000000
570 1 7  12.856464 3.705086 36.835129 1.000000
571 1 7  14.130474 2.949889 36.509453 1.000000
572 1 7  0.087515 1.085679 36.031647 1.000000
573 1 7  1.669562 0.153662 37.181236 1.000000
574 1 7  2.023646 13.124957 38.160118 1.000000
575 1 8  2.306975 10.955997 26.119526 1.000000
576 1 8  3.583676 9.319957 25.424259 1.000000
577 1 8  3.676624 8.476654 25.745993 1.000000
578 1 8  3.738884 7.546647 26.631130 1.000000
579 1 8  3.836881 7.080082 27.339380 1.000000
580 1 8  4.875748 7.613393 28.225851 1.000000
581 1 8  4.988551 7.775234 27.252350 1.000000
582 1 8  6.081135 8.814460 27.298859 1.000000
583 1 8  6.162011 7.947987 26.493814 1.000000
584 1 8  5.935229 5.414263 28.077768 1.000000
585 1 8  3.951184 4.613160 27.216452 1.000000
586 1 8  4.460703 5.644237 27.805233 1.000000
587 1 8  3.679988 5.661336 27.542082 1.000000
588 1 8  3.683465 8.444165 26.738180 1.000000
589 1 8  3.459007 9.309736 27.296434 1.000000
590 1 8  4.400698 8.018378 26.624838 1.000000
591 1 8  3.884148 9.508082 25.864054 1.000000
592 1 8  5.202536 10.688844 24.790836 1.000000
593 1 8  5.424310 10.697319 26.362585 1.000000
594 1 8  5.589457 10.650019 27.296051 1.000000
595 1 8  5.254022 10.481828 27.643171 1.000000
596 1 8  4.528231 12.458670 28.709326 1.000000
597 1 8  3.313769 10.326216 28.087082 1.000000
598 1 8  3.523991 10.677482 26.944290 1.000000
599 1 8  1.847626 10.098675 26.528669 1.000000
600 1 8  0.744561 8.864717 26.268307 1.000000
601 1 8  0.087193 7.677267 25.703594 1.000000
602 1 8  1.000914 7.349950 25.766071 1.000000
603 1 8  0.281262 6.402402 25.055317 1.000000
604 1 8  0.402814 5.312547 26.851770 1.000000
605 1 8  11.235752 5.537554 27.419338 1.000000
606 1 8  11.796379 5.510004 27.345453 1.000000
607 1 8  11.202416 6.045579 25.509363 1.000000
608 1 8  10.637510 6.378829 23.813154 1.000000
609 1 8  10.011205 9.047401 24.311516 1.000000
610 1 8  10.983071 11.195479 24.494202 1.000000
611 1 8  10.312328 11.903118 24.109303 1.000000
612 1 8  9.044777 11.614073 25.306599 1.000000
613 1 8  8.036816 10.810767 25.606913 1.000000
614 1 8  9.002937 10.668852 24.538530 1.000000
615 1 8  7.954884 9.562992 23.286751 1.000000
616 1 8  6.661161 7.873181 22.654743 1.000000
617 1 8  6.300966 7.547788 24.957842 1.000000
618 1 8  6.334995 8.952738 25.122746 1.000000
619 1 8  4.411370 8.957056 24.611765 1.000000
620 1 8  4.952866 8.836866 24.769176 1.000000
621 1 8  5.003585 9.373969 23.351789 1.000000
622 1 8  3.132185 10.092604 23.025181 1.000000
623 1 8  3.495241 11.200962 22.403990 1.000000
624 1 8  4.279590 11.498732 22.912889 1.000000
625 1 8  3.015866 10.148607 23.563597 1.000000
626 1 8  3.506650 9.869482 24.194843 1.000000
627 1 8  3.944452 10.985555 24.827232 1.000000
628 1 8  1.785858 12.971332 23.303833 1.000000
629 1 8  2.484825 13.767600 22.905994 1.000000